# vtk DataFile Version 2.0
generated by CFD-lab course output (written by Tobias Neckel) 
ASCII

DATASET STRUCTURED_GRID
DIMENSIONS  51 51 1 
POINTS 2601 float

0.000000 0.000000 0
0.020000 0.000000 0
0.040000 0.000000 0
0.060000 0.000000 0
0.080000 0.000000 0
0.100000 0.000000 0
0.120000 0.000000 0
0.140000 0.000000 0
0.160000 0.000000 0
0.180000 0.000000 0
0.200000 0.000000 0
0.220000 0.000000 0
0.240000 0.000000 0
0.260000 0.000000 0
0.280000 0.000000 0
0.300000 0.000000 0
0.320000 0.000000 0
0.340000 0.000000 0
0.360000 0.000000 0
0.380000 0.000000 0
0.400000 0.000000 0
0.420000 0.000000 0
0.440000 0.000000 0
0.460000 0.000000 0
0.480000 0.000000 0
0.500000 0.000000 0
0.520000 0.000000 0
0.540000 0.000000 0
0.560000 0.000000 0
0.580000 0.000000 0
0.600000 0.000000 0
0.620000 0.000000 0
0.640000 0.000000 0
0.660000 0.000000 0
0.680000 0.000000 0
0.700000 0.000000 0
0.720000 0.000000 0
0.740000 0.000000 0
0.760000 0.000000 0
0.780000 0.000000 0
0.800000 0.000000 0
0.820000 0.000000 0
0.840000 0.000000 0
0.860000 0.000000 0
0.880000 0.000000 0
0.900000 0.000000 0
0.920000 0.000000 0
0.940000 0.000000 0
0.960000 0.000000 0
0.980000 0.000000 0
1.000000 0.000000 0
0.000000 0.020000 0
0.020000 0.020000 0
0.040000 0.020000 0
0.060000 0.020000 0
0.080000 0.020000 0
0.100000 0.020000 0
0.120000 0.020000 0
0.140000 0.020000 0
0.160000 0.020000 0
0.180000 0.020000 0
0.200000 0.020000 0
0.220000 0.020000 0
0.240000 0.020000 0
0.260000 0.020000 0
0.280000 0.020000 0
0.300000 0.020000 0
0.320000 0.020000 0
0.340000 0.020000 0
0.360000 0.020000 0
0.380000 0.020000 0
0.400000 0.020000 0
0.420000 0.020000 0
0.440000 0.020000 0
0.460000 0.020000 0
0.480000 0.020000 0
0.500000 0.020000 0
0.520000 0.020000 0
0.540000 0.020000 0
0.560000 0.020000 0
0.580000 0.020000 0
0.600000 0.020000 0
0.620000 0.020000 0
0.640000 0.020000 0
0.660000 0.020000 0
0.680000 0.020000 0
0.700000 0.020000 0
0.720000 0.020000 0
0.740000 0.020000 0
0.760000 0.020000 0
0.780000 0.020000 0
0.800000 0.020000 0
0.820000 0.020000 0
0.840000 0.020000 0
0.860000 0.020000 0
0.880000 0.020000 0
0.900000 0.020000 0
0.920000 0.020000 0
0.940000 0.020000 0
0.960000 0.020000 0
0.980000 0.020000 0
1.000000 0.020000 0
0.000000 0.040000 0
0.020000 0.040000 0
0.040000 0.040000 0
0.060000 0.040000 0
0.080000 0.040000 0
0.100000 0.040000 0
0.120000 0.040000 0
0.140000 0.040000 0
0.160000 0.040000 0
0.180000 0.040000 0
0.200000 0.040000 0
0.220000 0.040000 0
0.240000 0.040000 0
0.260000 0.040000 0
0.280000 0.040000 0
0.300000 0.040000 0
0.320000 0.040000 0
0.340000 0.040000 0
0.360000 0.040000 0
0.380000 0.040000 0
0.400000 0.040000 0
0.420000 0.040000 0
0.440000 0.040000 0
0.460000 0.040000 0
0.480000 0.040000 0
0.500000 0.040000 0
0.520000 0.040000 0
0.540000 0.040000 0
0.560000 0.040000 0
0.580000 0.040000 0
0.600000 0.040000 0
0.620000 0.040000 0
0.640000 0.040000 0
0.660000 0.040000 0
0.680000 0.040000 0
0.700000 0.040000 0
0.720000 0.040000 0
0.740000 0.040000 0
0.760000 0.040000 0
0.780000 0.040000 0
0.800000 0.040000 0
0.820000 0.040000 0
0.840000 0.040000 0
0.860000 0.040000 0
0.880000 0.040000 0
0.900000 0.040000 0
0.920000 0.040000 0
0.940000 0.040000 0
0.960000 0.040000 0
0.980000 0.040000 0
1.000000 0.040000 0
0.000000 0.060000 0
0.020000 0.060000 0
0.040000 0.060000 0
0.060000 0.060000 0
0.080000 0.060000 0
0.100000 0.060000 0
0.120000 0.060000 0
0.140000 0.060000 0
0.160000 0.060000 0
0.180000 0.060000 0
0.200000 0.060000 0
0.220000 0.060000 0
0.240000 0.060000 0
0.260000 0.060000 0
0.280000 0.060000 0
0.300000 0.060000 0
0.320000 0.060000 0
0.340000 0.060000 0
0.360000 0.060000 0
0.380000 0.060000 0
0.400000 0.060000 0
0.420000 0.060000 0
0.440000 0.060000 0
0.460000 0.060000 0
0.480000 0.060000 0
0.500000 0.060000 0
0.520000 0.060000 0
0.540000 0.060000 0
0.560000 0.060000 0
0.580000 0.060000 0
0.600000 0.060000 0
0.620000 0.060000 0
0.640000 0.060000 0
0.660000 0.060000 0
0.680000 0.060000 0
0.700000 0.060000 0
0.720000 0.060000 0
0.740000 0.060000 0
0.760000 0.060000 0
0.780000 0.060000 0
0.800000 0.060000 0
0.820000 0.060000 0
0.840000 0.060000 0
0.860000 0.060000 0
0.880000 0.060000 0
0.900000 0.060000 0
0.920000 0.060000 0
0.940000 0.060000 0
0.960000 0.060000 0
0.980000 0.060000 0
1.000000 0.060000 0
0.000000 0.080000 0
0.020000 0.080000 0
0.040000 0.080000 0
0.060000 0.080000 0
0.080000 0.080000 0
0.100000 0.080000 0
0.120000 0.080000 0
0.140000 0.080000 0
0.160000 0.080000 0
0.180000 0.080000 0
0.200000 0.080000 0
0.220000 0.080000 0
0.240000 0.080000 0
0.260000 0.080000 0
0.280000 0.080000 0
0.300000 0.080000 0
0.320000 0.080000 0
0.340000 0.080000 0
0.360000 0.080000 0
0.380000 0.080000 0
0.400000 0.080000 0
0.420000 0.080000 0
0.440000 0.080000 0
0.460000 0.080000 0
0.480000 0.080000 0
0.500000 0.080000 0
0.520000 0.080000 0
0.540000 0.080000 0
0.560000 0.080000 0
0.580000 0.080000 0
0.600000 0.080000 0
0.620000 0.080000 0
0.640000 0.080000 0
0.660000 0.080000 0
0.680000 0.080000 0
0.700000 0.080000 0
0.720000 0.080000 0
0.740000 0.080000 0
0.760000 0.080000 0
0.780000 0.080000 0
0.800000 0.080000 0
0.820000 0.080000 0
0.840000 0.080000 0
0.860000 0.080000 0
0.880000 0.080000 0
0.900000 0.080000 0
0.920000 0.080000 0
0.940000 0.080000 0
0.960000 0.080000 0
0.980000 0.080000 0
1.000000 0.080000 0
0.000000 0.100000 0
0.020000 0.100000 0
0.040000 0.100000 0
0.060000 0.100000 0
0.080000 0.100000 0
0.100000 0.100000 0
0.120000 0.100000 0
0.140000 0.100000 0
0.160000 0.100000 0
0.180000 0.100000 0
0.200000 0.100000 0
0.220000 0.100000 0
0.240000 0.100000 0
0.260000 0.100000 0
0.280000 0.100000 0
0.300000 0.100000 0
0.320000 0.100000 0
0.340000 0.100000 0
0.360000 0.100000 0
0.380000 0.100000 0
0.400000 0.100000 0
0.420000 0.100000 0
0.440000 0.100000 0
0.460000 0.100000 0
0.480000 0.100000 0
0.500000 0.100000 0
0.520000 0.100000 0
0.540000 0.100000 0
0.560000 0.100000 0
0.580000 0.100000 0
0.600000 0.100000 0
0.620000 0.100000 0
0.640000 0.100000 0
0.660000 0.100000 0
0.680000 0.100000 0
0.700000 0.100000 0
0.720000 0.100000 0
0.740000 0.100000 0
0.760000 0.100000 0
0.780000 0.100000 0
0.800000 0.100000 0
0.820000 0.100000 0
0.840000 0.100000 0
0.860000 0.100000 0
0.880000 0.100000 0
0.900000 0.100000 0
0.920000 0.100000 0
0.940000 0.100000 0
0.960000 0.100000 0
0.980000 0.100000 0
1.000000 0.100000 0
0.000000 0.120000 0
0.020000 0.120000 0
0.040000 0.120000 0
0.060000 0.120000 0
0.080000 0.120000 0
0.100000 0.120000 0
0.120000 0.120000 0
0.140000 0.120000 0
0.160000 0.120000 0
0.180000 0.120000 0
0.200000 0.120000 0
0.220000 0.120000 0
0.240000 0.120000 0
0.260000 0.120000 0
0.280000 0.120000 0
0.300000 0.120000 0
0.320000 0.120000 0
0.340000 0.120000 0
0.360000 0.120000 0
0.380000 0.120000 0
0.400000 0.120000 0
0.420000 0.120000 0
0.440000 0.120000 0
0.460000 0.120000 0
0.480000 0.120000 0
0.500000 0.120000 0
0.520000 0.120000 0
0.540000 0.120000 0
0.560000 0.120000 0
0.580000 0.120000 0
0.600000 0.120000 0
0.620000 0.120000 0
0.640000 0.120000 0
0.660000 0.120000 0
0.680000 0.120000 0
0.700000 0.120000 0
0.720000 0.120000 0
0.740000 0.120000 0
0.760000 0.120000 0
0.780000 0.120000 0
0.800000 0.120000 0
0.820000 0.120000 0
0.840000 0.120000 0
0.860000 0.120000 0
0.880000 0.120000 0
0.900000 0.120000 0
0.920000 0.120000 0
0.940000 0.120000 0
0.960000 0.120000 0
0.980000 0.120000 0
1.000000 0.120000 0
0.000000 0.140000 0
0.020000 0.140000 0
0.040000 0.140000 0
0.060000 0.140000 0
0.080000 0.140000 0
0.100000 0.140000 0
0.120000 0.140000 0
0.140000 0.140000 0
0.160000 0.140000 0
0.180000 0.140000 0
0.200000 0.140000 0
0.220000 0.140000 0
0.240000 0.140000 0
0.260000 0.140000 0
0.280000 0.140000 0
0.300000 0.140000 0
0.320000 0.140000 0
0.340000 0.140000 0
0.360000 0.140000 0
0.380000 0.140000 0
0.400000 0.140000 0
0.420000 0.140000 0
0.440000 0.140000 0
0.460000 0.140000 0
0.480000 0.140000 0
0.500000 0.140000 0
0.520000 0.140000 0
0.540000 0.140000 0
0.560000 0.140000 0
0.580000 0.140000 0
0.600000 0.140000 0
0.620000 0.140000 0
0.640000 0.140000 0
0.660000 0.140000 0
0.680000 0.140000 0
0.700000 0.140000 0
0.720000 0.140000 0
0.740000 0.140000 0
0.760000 0.140000 0
0.780000 0.140000 0
0.800000 0.140000 0
0.820000 0.140000 0
0.840000 0.140000 0
0.860000 0.140000 0
0.880000 0.140000 0
0.900000 0.140000 0
0.920000 0.140000 0
0.940000 0.140000 0
0.960000 0.140000 0
0.980000 0.140000 0
1.000000 0.140000 0
0.000000 0.160000 0
0.020000 0.160000 0
0.040000 0.160000 0
0.060000 0.160000 0
0.080000 0.160000 0
0.100000 0.160000 0
0.120000 0.160000 0
0.140000 0.160000 0
0.160000 0.160000 0
0.180000 0.160000 0
0.200000 0.160000 0
0.220000 0.160000 0
0.240000 0.160000 0
0.260000 0.160000 0
0.280000 0.160000 0
0.300000 0.160000 0
0.320000 0.160000 0
0.340000 0.160000 0
0.360000 0.160000 0
0.380000 0.160000 0
0.400000 0.160000 0
0.420000 0.160000 0
0.440000 0.160000 0
0.460000 0.160000 0
0.480000 0.160000 0
0.500000 0.160000 0
0.520000 0.160000 0
0.540000 0.160000 0
0.560000 0.160000 0
0.580000 0.160000 0
0.600000 0.160000 0
0.620000 0.160000 0
0.640000 0.160000 0
0.660000 0.160000 0
0.680000 0.160000 0
0.700000 0.160000 0
0.720000 0.160000 0
0.740000 0.160000 0
0.760000 0.160000 0
0.780000 0.160000 0
0.800000 0.160000 0
0.820000 0.160000 0
0.840000 0.160000 0
0.860000 0.160000 0
0.880000 0.160000 0
0.900000 0.160000 0
0.920000 0.160000 0
0.940000 0.160000 0
0.960000 0.160000 0
0.980000 0.160000 0
1.000000 0.160000 0
0.000000 0.180000 0
0.020000 0.180000 0
0.040000 0.180000 0
0.060000 0.180000 0
0.080000 0.180000 0
0.100000 0.180000 0
0.120000 0.180000 0
0.140000 0.180000 0
0.160000 0.180000 0
0.180000 0.180000 0
0.200000 0.180000 0
0.220000 0.180000 0
0.240000 0.180000 0
0.260000 0.180000 0
0.280000 0.180000 0
0.300000 0.180000 0
0.320000 0.180000 0
0.340000 0.180000 0
0.360000 0.180000 0
0.380000 0.180000 0
0.400000 0.180000 0
0.420000 0.180000 0
0.440000 0.180000 0
0.460000 0.180000 0
0.480000 0.180000 0
0.500000 0.180000 0
0.520000 0.180000 0
0.540000 0.180000 0
0.560000 0.180000 0
0.580000 0.180000 0
0.600000 0.180000 0
0.620000 0.180000 0
[...]
POINT_DATA 2601 

VECTORS velocity float
0.000000 0.000000 0
0.000000 0.000000 0
0.000000 0.000000 0
0.000000 0.000000 0
0.000000 0.000000 0
0.000000 0.000000 0
0.000000 0.000000 0
0.000000 0.000000 0
0.000000 0.000000 0
0.000000 0.000000 0
0.000000 0.000000 0
0.000000 0.000000 0
0.000000 0.000000 0
0.000000 0.000000 0
0.000000 0.000000 0
0.000000 0.000000 0
0.000000 0.000000 0
0.000000 0.000000 0
0.000000 0.000000 0
0.000000 0.000000 0
0.000000 0.000000 0
0.000000 0.000000 0
0.000000 0.000000 0
0.000000 0.000000 0
0.000000 0.000000 0
0.000000 0.000000 0
0.000000 0.000000 0
0.000000 0.000000 0
0.000000 0.000000 0
0.000000 0.000000 0
0.000000 0.000000 0
0.000000 0.000000 0
0.000000 0.000000 0
0.000000 0.000000 0
0.000000 0.000000 0
0.000000 0.000000 0
0.000000 0.000000 0
0.000000 0.000000 0
0.000000 0.000000 0
0.000000 0.000000 0
0.000000 0.000000 0
0.000000 0.000000 0
0.000000 0.000000 0
0.000000 0.000000 0
0.000000 0.000000 0
0.000000 0.000000 0
0.000000 0.000000 0
0.000000 0.000000 0
0.000000 0.000000 0
0.000000 0.000000 0
0.000000 0.000000 0
0.000000 -0.000000 0
-0.050341 -0.029260 0
-0.088856 -0.053319 0
-0.112895 -0.070671 0
-0.126971 -0.083214 0
-0.135929 -0.093374 0
-0.142598 -0.102695 0
-0.148250 -0.111892 0
-0.153365 -0.121220 0
-0.158091 -0.130729 0
-0.162447 -0.140384 0
-0.166411 -0.150120 0
-0.169950 -0.159858 0
-0.173024 -0.169510 0
-0.175597 -0.178984 0
-0.177634 -0.188180 0
-0.179100 -0.196995 0
-0.179964 -0.205320 0
-0.180196 -0.213041 0
-0.179772 -0.220041 0
-0.178669 -0.226201 0
-0.176867 -0.231403 0
-0.174353 -0.235525 0
-0.171119 -0.238454 0
-0.167163 -0.240080 0
-0.162489 -0.240302 0
-0.157111 -0.239034 0
-0.151052 -0.236207 0
-0.144345 -0.231774 0
-0.137037 -0.225717 0
-0.129185 -0.218055 0
-0.120863 -0.208842 0
-0.112156 -0.198180 0
-0.103168 -0.186218 0
-0.094011 -0.173151 0
-0.084811 -0.159219 0
-0.075696 -0.144697 0
-0.066800 -0.129885 0
-0.058248 -0.115087 0
-0.050153 -0.100599 0
-0.042608 -0.086685 0
-0.035684 -0.073563 0
-0.029423 -0.061395 0
-0.023837 -0.050277 0
-0.018913 -0.040239 0
-0.014616 -0.031251 0
-0.010888 -0.023224 0
-0.007658 -0.016017 0
-0.004840 -0.009423 0
-0.002330 -0.003153 0
0.000000 0.000000 0
0.000000 -0.000000 0
-0.095826 -0.054968 0
-0.162661 -0.096402 0
-0.199823 -0.123322 0
-0.219441 -0.141449 0
-0.231031 -0.155764 0
-0.239255 -0.168799 0
-0.245966 -0.181539 0
-0.251807 -0.194275 0
-0.256973 -0.207037 0
-0.261501 -0.219766 0
-0.265384 -0.232378 0
-0.268601 -0.244782 0
-0.271129 -0.256888 0
-0.272948 -0.268602 0
-0.274040 -0.279830 0
-0.274388 -0.290477 0
-0.273978 -0.300444 0
-0.272796 -0.309631 0
-0.270832 -0.317935 0
-0.268076 -0.325252 0
-0.264521 -0.331473 0
-0.260162 -0.336489 0
-0.254995 -0.340189 0
-0.249021 -0.342463 0
-0.242244 -0.343199 0
-0.234673 -0.342293 0
-0.226321 -0.339644 0
-0.217211 -0.335162 0
-0.207372 -0.328774 0
-0.196844 -0.320428 0
-0.185680 -0.310102 0
-0.173949 -0.297813 0
-0.161737 -0.283624 0
-0.149149 -0.267655 0
-0.136308 -0.250088 0
-0.123357 -0.231170 0
-0.110455 -0.211207 0
-0.097768 -0.190560 0
-0.085467 -0.169622 0
-0.073711 -0.148795 0
-0.062643 -0.128466 0
-0.052377 -0.108973 0
-0.042989 -0.090586 0
-0.034518 -0.073483 0
-0.026959 -0.057741 0
-0.020268 -0.043329 0
-0.014365 -0.030102 0
-0.009134 -0.017786 0
-0.004416 -0.005947 0
0.000000 0.000000 0
0.000000 -0.000000 0
-0.130549 -0.072573 0
-0.212990 -0.122759 0
-0.253381 -0.152161 0
-0.272349 -0.170778 0
-0.282627 -0.185299 0
-0.289525 -0.198559 0
-0.294926 -0.211506 0
-0.299437 -0.224380 0
-0.303240 -0.237191 0
-0.306383 -0.249883 0
-0.308873 -0.262387 0
-0.310708 -0.274631 0
-0.311883 -0.286546 0
-0.312392 -0.298059 0
-0.312227 -0.309098 0
-0.311382 -0.319588 0
-0.309850 -0.329450 0
-0.307622 -0.338601 0
-0.304691 -0.346956 0
-0.301048 -0.354422 0
-0.296685 -0.360905 0
-0.291598 -0.366307 0
-0.285778 -0.370524 0
-0.279224 -0.373451 0
-0.271935 -0.374980 0
-0.263911 -0.375003 0
-0.255159 -0.373413 0
-0.245691 -0.370106 0
-0.235523 -0.364988 0
-0.224678 -0.357973 0
-0.213191 -0.348996 0
-0.201105 -0.338015 0
-0.188478 -0.325022 0
-0.175382 -0.310049 0
-0.161907 -0.293181 0
-0.148163 -0.274564 0
-0.134278 -0.254406 0
-0.120399 -0.232983 0
-0.106686 -0.210631 0
-0.093306 -0.187732 0
-0.080422 -0.164691 0
-0.068188 -0.141911 0
-0.056728 -0.119757 0
-0.046135 -0.098524 0
-0.036459 -0.078412 0
-0.027700 -0.059495 0
-0.019810 -0.041704 0
-0.012687 -0.024797 0
-0.006166 -0.008315 0
0.000000 0.000000 0
0.000000 -0.000000 0
-0.153092 -0.081482 0
-0.242253 -0.134260 0
-0.281675 -0.162932 0
-0.298511 -0.180473 0
-0.307030 -0.194233 0
-0.312539 -0.206961 0
-0.316759 -0.219482 0
-0.320213 -0.231979 0
-0.323052 -0.244447 0
-0.325314 -0.256834 0
-0.327007 -0.269080 0
-0.328127 -0.281124 0
-0.328668 -0.292903 0
-0.328620 -0.304354 0
-0.327972 -0.315409 0
-0.326713 -0.325997 0
-0.324830 -0.336042 0
-0.322309 -0.345463 0
-0.319135 -0.354174 0
-0.315295 -0.362085 0
-0.310777 -0.369100 0
-0.305567 -0.375118 0
-0.299656 -0.380036 0
-0.293036 -0.383746 0
-0.285703 -0.386140 0
-0.277656 -0.387105 0
-0.268897 -0.386533 0
-0.259437 -0.384316 0
-0.249288 -0.380354 0
-0.238473 -0.374552 0
-0.227021 -0.366833 0
-0.214969 -0.357135 0
-0.202367 -0.345422 0
-0.189274 -0.331691 0
-0.175763 -0.315978 0
-0.161924 -0.298367 0
-0.147861 -0.278997 0
-0.133694 -0.258066 0
-0.119558 -0.235832 0
-0.105600 -0.212609 0
-0.091972 -0.188753 0
-0.078823 -0.164638 0
-0.066292 -0.140636 0
-0.054492 -0.117079 0
-0.043504 -0.094222 0
-0.033365 -0.072215 0
-0.024061 -0.051055 0
-0.015515 -0.030557 0
-0.007577 -0.010287 0
0.000000 0.000000 0
0.000000 0.000000 0
-0.166351 -0.083955 0
-0.258041 -0.136152 0
-0.295920 -0.163324 0
-0.311177 -0.179822 0
-0.318649 -0.193001 0
-0.323459 -0.205399 0
-0.327168 -0.217721 0
-0.330227 -0.230104 0
-0.332752 -0.242529 0
-0.334771 -0.254942 0
-0.336280 -0.267283 0
-0.337270 -0.279491 0
-0.337727 -0.291504 0
-0.337635 -0.303258 0
-0.336977 -0.314684 0
-0.335735 -0.325708 0
-0.333891 -0.336251 0
-0.331426 -0.346230 0
-0.328322 -0.355556 0
-0.324559 -0.364135 0
-0.320121 -0.371868 0
-0.314993 -0.378651 0
-0.309160 -0.384378 0
-0.302614 -0.388937 0
-0.295345 -0.392215 0
-0.287352 -0.394097 0
-0.278637 -0.394470 0
-0.269206 -0.393221 0
-0.259075 -0.390245 0
-0.248264 -0.385442 0
-0.236801 -0.378725 0
-0.224726 -0.370024 0
-0.212085 -0.359291 0
-0.198936 -0.346503 0
-0.185350 -0.331675 0
-0.171408 -0.314860 0
-0.157205 -0.296161 0
-0.142849 -0.275732 0
-0.128460 -0.253780 0
-0.114167 -0.230565 0
-0.100109 -0.206393 0
-0.086422 -0.181595 0
-0.073237 -0.156515 0
-0.060669 -0.131474 0
-0.048809 -0.106737 0
-0.037709 -0.082480 0
-0.027374 -0.058738 0
-0.017749 -0.035364 0
-0.008703 -0.011954 0
0.000000 0.000000 0
0.000000 0.000000 0
-0.174072 -0.082518 0
-0.266812 -0.132722 0
-0.303642 -0.158423 0
-0.318081 -0.174212 0
-0.325147 -0.187129 0
-0.329786 -0.199484 0
-0.333445 -0.211879 0
-0.336519 -0.224413 0
-0.339105 -0.237056 0
-0.341215 -0.249748 0
-0.342841 -0.262426 0
-0.343966 -0.275028 0
-0.344573 -0.287489 0
-0.344641 -0.299743 0
-0.344150 -0.311718 0
-0.343080 -0.323337 0
-0.341408 -0.334521 0
-0.339113 -0.345183 0
-0.336175 -0.355232 0
-0.332572 -0.364571 0
-0.328286 -0.373098 0
-0.323298 -0.380708 0
-0.317592 -0.387290 0
-0.311157 -0.392728 0
-0.303981 -0.396906 0
-0.296061 -0.399705 0
-0.287395 -0.401005 0
-0.277991 -0.400688 0
-0.267859 -0.398641 0
-0.257021 -0.394758 0
-0.245505 -0.388941 0
-0.233348 -0.381110 0
-0.220598 -0.371204 0
-0.207312 -0.359188 0
-0.193561 -0.345057 0
-0.179424 -0.328846 0
-0.164996 -0.310634 0
-0.150381 -0.290547 0
-0.135693 -0.268764 0
-0.121056 -0.245512 0
-0.106599 -0.221060 0
-0.092451 -0.195711 0
-0.078736 -0.169779 0
-0.065565 -0.143565 0
-0.053027 -0.117328 0
-0.041180 -0.091245 0
-0.030037 -0.065364 0
-0.019556 -0.039553 0
-0.009617 -0.013422 0
0.000000 0.000000 0
0.000000 0.000000 0
-0.178982 -0.078892 0
-0.272386 -0.126469 0
-0.308677 -0.150846 0
-0.322796 -0.166183 0
-0.329823 -0.179061 0
-0.334568 -0.191561 0
-0.338400 -0.204200 0
-0.341677 -0.217042 0
-0.344480 -0.230046 0
-0.346814 -0.243148 0
-0.348667 -0.256283 0
-0.350020 -0.269386 0
-0.350852 -0.282389 0
-0.351144 -0.295226 0
-0.350872 -0.307822 0
-0.350016 -0.320100 0
-0.348553 -0.331978 0
-0.346461 -0.343370 0
-0.343717 -0.354181 0
-0.340299 -0.364315 0
-0.336185 -0.373667 0
-0.331357 -0.382129 0
-0.325797 -0.389588 0
-0.319488 -0.395925 0
-0.312419 -0.401020 0
-0.304582 -0.404748 0
-0.295974 -0.406984 0
-0.286599 -0.407604 0
-0.276466 -0.406486 0
-0.265594 -0.403515 0
-0.254009 -0.398583 0
-0.241748 -0.391598 0
-0.228856 -0.382484 0
-0.215391 -0.371190 0
-0.201423 -0.357694 0
-0.187033 -0.342013 0
-0.172315 -0.324203 0
-0.157373 -0.304371 0
-0.142321 -0.282671 0
-0.127284 -0.259307 0
-0.112387 -0.234528 0
-0.097759 -0.208615 0
-0.083521 -0.181864 0
-0.069783 -0.154563 0
-0.056634 -0.126962 0
-0.044131 -0.099233 0
-0.032293 -0.071426 0
-0.021083 -0.043407 0
-0.010389 -0.014785 0
0.000000 0.000000 0
0.000000 0.000000 0
-0.182639 -0.074026 0
-0.276660 -0.118646 0
-0.312727 -0.141797 0
-0.326788 -0.156832 0
-0.333950 -0.169797 0
-0.338925 -0.182550 0
-0.343021 -0.195523 0
-0.346570 -0.208754 0
-0.349642 -0.222191 0
-0.352242 -0.235766 0
-0.354352 -0.249411 0
-0.355956 -0.263059 0
-0.357033 -0.276645 0
-0.357561 -0.290096 0
-0.357520 -0.303341 0
-0.356888 -0.316301 0
-0.355643 -0.328894 0
-0.353760 -0.341032 0
-0.351218 -0.352621 0
-0.347994 -0.363563 0
-0.344064 -0.373754 0
-0.339406 -0.383082 0
-0.334002 -0.391431 0
-0.327831 -0.398682 0
-0.320881 -0.404709 0
-0.313139 -0.409384 0
-0.304600 -0.412575 0
-0.295264 -0.414151 0
-0.285138 -0.413982 0
-0.274236 -0.411943 0
-0.262584 -0.407916 0
-0.250213 -0.401794 0
-0.237170 -0.393488 0
-0.223511 -0.382928 0
-0.209305 -0.370074 0
-0.194632 -0.354923 0
-0.179587 -0.337509 0
-0.164275 -0.317915 0
-0.148813 -0.296275 0
-0.133326 -0.272773 0
-0.117944 -0.247639 0
-0.102797 -0.221139 0
-0.088010 -0.193559 0
-0.073694 -0.165180 0
-0.059939 -0.136247 0
-0.046809 -0.106929 0
-0.034322 -0.077273 0
-0.022446 -0.047139 0
-0.011074 -0.016113 0
0.000000 0.000000 0
0.000000 0.000000 0
-0.185814 -0.068385 0
-0.280486 -0.109830 0
-0.316490 -0.131800 0
-0.330613 -0.146614 0
-0.337986 -0.159738 0
-0.343238 -0.172801 0
-0.347627 -0.186157 0
-0.351468 -0.199818 0
-0.354823 -0.213723 0
-0.357695 -0.227800 0
-0.360067 -0.241980 0
-0.361923 -0.256195 0
-0.363244 -0.270377 0
-0.364008 -0.284457 0
-0.364197 -0.298361 0
-0.363789 -0.312012 0
-0.362761 -0.325326 0
-0.361091 -0.338216 0
-0.358755 -0.350590 0
-0.355729 -0.362347 0
-0.351989 -0.373382 0
-0.347511 -0.383584 0
-0.342273 -0.392836 0
-0.336253 -0.401013 0
-0.329433 -0.407987 0
-0.321800 -0.413626 0
-0.313344 -0.417792 0
-0.304060 -0.420347 0
-0.293951 -0.421154 0
-0.283031 -0.420077 0
-0.271318 -0.416986 0
-0.258844 -0.411761 0
-0.245652 -0.404297 0
-0.231796 -0.394509 0
-0.217343 -0.382335 0
-0.202375 -0.367749 0
-0.186984 -0.350763 0
-0.171279 -0.331437 0
-0.155377 -0.309880 0
-0.139408 -0.286255 0
-0.123505 -0.260773 0
-0.107802 -0.233686 0
-0.092432 -0.205273 0
-0.077510 -0.175808 0
-0.063134 -0.145538 0
-0.049371 -0.114631 0
-0.036245 -0.083132 0
-0.023728 -0.050889 0
-0.011715 -0.017454 0
0.000000 0.000000 0
0.000000 0.000000 0
-0.188861 -0.062178 0
-0.284219 -0.100273 0
-0.320234 -0.121076 0
-0.334471 -0.135716 0
-0.342084 -0.149039 0
-0.347627 -0.162445 0
-0.352318 -0.176212 0
-0.356452 -0.190328 0
-0.360089 -0.204721 0
-0.363229 -0.219315 0
-0.365858 -0.234042 0
-0.367961 -0.248833 0
-0.369519 -0.263619 0
-0.370515 -0.278332 0
-0.370930 -0.292899 0
-0.370742 -0.307242 0
-0.369931 -0.321279 0
-0.368473 -0.334923 0
-0.366345 -0.348082 0
-0.363522 -0.360657 0
-0.359978 -0.372541 0
-0.355687 -0.383623 0
-0.350624 -0.393784 0
-0.344766 -0.402897 0
-0.338091 -0.410833 0
-0.330581 -0.417452 0
-0.322221 -0.422614 0
-0.313005 -0.426173 0
-0.302930 -0.427983 0
-0.292004 -0.427899 0
-0.280243 -0.425779 0
-0.267677 -0.421492 0
-0.254343 -0.414914 0
-0.240293 -0.405942 0
-0.225595 -0.394497 0
-0.210326 -0.380529 0
-0.194582 -0.364024 0
-0.178470 -0.345017 0
-0.162110 -0.323592 0
-0.145635 -0.299886 0
-0.129183 -0.274090 0
-0.112896 -0.246440 0
-0.096911 -0.217203 0
-0.081354 -0.186653 0
-0.066331 -0.155033 0
-0.051916 -0.122516 0
-0.038142 -0.089144 0
-0.024983 -0.054748 0
-0.012340 -0.018841 0
0.000000 0.000000 0
0.000000 0.000000 0
-0.191928 -0.055489 0
-0.288000 -0.090078 0
-0.324054 -0.109715 0
-0.338425 -0.124209 0
-0.346290 -0.137760 0
-0.352129 -0.151532 0
-0.357120 -0.165730 0
-0.361545 -0.180315 0
-0.365457 -0.195207 0
-0.368859 -0.210329 0
-0.371738 -0.225610 0
-0.374080 -0.240981 0
-0.375869 -0.256375 0
-0.377090 -0.271723 0
-0.377724 -0.286952 0
-0.377752 -0.301986 0
-0.377154 -0.316744 0
-0.375908 -0.331141 0
-0.373988 -0.345084 0
-0.371370 -0.358476 0
-0.368026 -0.371210 0
-0.363930 -0.383175 0
-0.359053 -0.394250 0
-0.353368 -0.404309 0
-0.346851 -0.413216 0
-0.339478 -0.420832 0
-0.331232 -0.427009 0
-0.322100 -0.431595 0
-0.312076 -0.434436 0
-0.301161 -0.435378 0
-0.289369 -0.434268 0
-0.276723 -0.430958 0
-0.263258 -0.425312 0
-0.249024 -0.417208 0
-0.234084 -0.406546 0
-0.218517 -0.393253 0
-0.202416 -0.377291 0
-0.185889 -0.358666 0
-0.169060 -0.337434 0
-0.152063 -0.313705 0
-0.135042 -0.287647 0
-0.118145 -0.259474 0
-0.101518 -0.229442 0
-0.085297 -0.197815 0
-0.069598 -0.164838 0
-0.054506 -0.130683 0
-0.040062 -0.095390 0
-0.026248 -0.058774 0
-0.012966 -0.020295 0
0.000000 0.000000 0
0.000000 0.000000 0
-0.195078 -0.048349 0
-0.291883 -0.079281 0
-0.327985 -0.097748 0
-0.342499 -0.112121 0
-0.350620 -0.125921 0
-0.356757 -0.140079 0
-0.362045 -0.154721 0
-0.366754 -0.169788 0
-0.370935 -0.185190 0
-0.374591 -0.200847 0
-0.377710 -0.216687 0
-0.380283 -0.232642 0
-0.382294 -0.248644 0
-0.383731 -0.264625 0
-0.384577 -0.280514 0
-0.384815 -0.296236 0
-0.384426 -0.311712 0
-0.383387 -0.326857 0
-0.381675 -0.341580 0
-0.379263 -0.355785 0
-0.376124 -0.369367 0
-0.372228 -0.382215 0
-0.367545 -0.394207 0
-0.362045 -0.405217 0
-0.355699 -0.415106 0
-0.348480 -0.423732 0
-0.340365 -0.430941 0
-0.331336 -0.436577 0
-0.321382 -0.440477 0
-0.310499 -0.442477 0
-0.298694 -0.442413 0
-0.285985 -0.440124 0
-0.272405 -0.435458 0
-0.257998 -0.428274 0
-0.242825 -0.418451 0
-0.226964 -0.405894 0
-0.210506 -0.390539 0
-0.193562 -0.372364 0
-0.176255 -0.351394 0
-0.158723 -0.327711 0
-0.141115 -0.301453 0
-0.123587 -0.272811 0
-0.106293 -0.242021 0
-0.089380 -0.209338 0
-0.072976 -0.175002 0
-0.057178 -0.139185 0
-0.042037 -0.101919 0
-0.027546 -0.062999 0
-0.013607 -0.021829 0
0.000000 0.000000 0
0.000000 0.000000 0
-0.198338 -0.040758 0
-0.295889 -0.067888 0
-0.332040 -0.085183 0
-0.346702 -0.099457 0
-0.355083 -0.113528 0
-0.361516 -0.128088 0
-0.367099 -0.143190 0
-0.372086 -0.158749 0
-0.376529 -0.174670 0
-0.380429 -0.190868 0
-0.383779 -0.207271 0
-0.386571 -0.223811 0
-0.388794 -0.240421 0
-0.390437 -0.257033 0
-0.391486 -0.273578 0
-0.391925 -0.289983 0
-0.391737 -0.306170 0
-0.390900 -0.322056 0
-0.389392 -0.337553 0
-0.387186 -0.352566 0
-0.384253 -0.366991 0
-0.380562 -0.380718 0
-0.376081 -0.393628 0
-0.370777 -0.405590 0
-0.364616 -0.416468 0
-0.357568 -0.426114 0
-0.349603 -0.434372 0
-0.340698 -0.441079 0
-0.330835 -0.446065 0
-0.320005 -0.449155 0
-0.308209 -0.450175 0
-0.295459 -0.448949 0
-0.281781 -0.445310 0
-0.267218 -0.439100 0
-0.251825 -0.430176 0
-0.235677 -0.418418 0
-0.218867 -0.403738 0
-0.201503 -0.386083 0
-0.183712 -0.365449 0
-0.165636 -0.341884 0
-0.147427 -0.315495 0
-0.129248 -0.286445 0
-0.111263 -0.254946 0
-0.093631 -0.221238 0
-0.076492 -0.185549 0
-0.059956 -0.148047 0
-0.044089 -0.108756 0
-0.028891 -0.067445 0
-0.014271 -0.023451 0
0.000000 0.000000 0
0.000000 0.000000 0
-0.201723 -0.032708 0
-0.300031 -0.055893 0
-0.336229 -0.072016 0
-0.351043 -0.086215 0
-0.359687 -0.100578 0
-0.366416 -0.115558 0
-0.372289 -0.131135 0
-0.377549 -0.147199 0
-0.382243 -0.163646 0
-0.386377 -0.180393 0
-0.389947 -0.197363 0
-0.392946 -0.214488 0
-0.395368 -0.231704 0
-0.397203 -0.248944 0
-0.398442 -0.266140 0
-0.399071 -0.283219 0
-0.399075 -0.300109 0
-0.398433 -0.316727 0
-0.397123 -0.332988 0
-0.395120 -0.348798 0
-0.392393 -0.364059 0
-0.388911 -0.378659 0
-0.384639 -0.392481 0
-0.379540 -0.405396 0
-0.373578 -0.417266 0
-0.366717 -0.427940 0
-0.358922 -0.437260 0
-0.350163 -0.445057 0
-0.340417 -0.451153 0
-0.329665 -0.455365 0
-0.317903 -0.457506 0
-0.305136 -0.457387 0
-0.291384 -0.454826 0
-0.276682 -0.449643 0
-0.261085 -0.441677 0
-0.244663 -0.430784 0
-0.227507 -0.416848 0
-0.209726 -0.399787 0
-0.191448 -0.379564 0
-0.172817 -0.356194 0
-0.153993 -0.329748 0
-0.135145 -0.300358 0
-0.116447 -0.268206 0
-0.098069 -0.233510 0
-0.080164 -0.196484 0
-0.062859 -0.157282 0
-0.046232 -0.115916 0
-0.030295 -0.072123 0
-0.014963 -0.025167 0
0.000000 0.000000 0
0.000000 0.000000 0
-0.205246 -0.024181 0
-0.304320 -0.043279 0
-0.340561 -0.058236 0
-0.355531 -0.072388 0
-0.364442 -0.087068 0
-0.371467 -0.102488 0
-0.377627 -0.118554 0
-0.383151 -0.135135 0
-0.388086 -0.152120 0
-0.392441 -0.169420 0
-0.396216 -0.186960 0
-0.399407 -0.204673 0
-0.402012 -0.222493 0
-0.404025 -0.240355 0
-0.405439 -0.258193 0
-0.406245 -0.275939 0
-0.406427 -0.293519 0
-0.405970 -0.310857 0
-0.404851 -0.327869 0
-0.403045 -0.344465 0
-0.400523 -0.360549 0
-0.397251 -0.376012 0
-0.393192 -0.390738 0
-0.388309 -0.404601 0
-0.382559 -0.417462 0
-0.375901 -0.429169 0
-0.368297 -0.439561 0
-0.359708 -0.448463 0
-0.350103 -0.455692 0
-0.339458 -0.461056 0
-0.327759 -0.464356 0
-0.315003 -0.465389 0
-0.301203 -0.463954 0
-0.286388 -0.459857 0
-0.270607 -0.452911 0
-0.253926 -0.442950 0
-0.236435 -0.429829 0
-0.218241 -0.413437 0
-0.199475 -0.393704 0
-0.180283 -0.370608 0
-0.160832 -0.344183 0
-0.141297 -0.314526 0
-0.121862 -0.281783 0
-0.102709 -0.246145 0
-0.084007 -0.207802 0
-0.065898 -0.166892 0
-0.048476 -0.123405 0
-0.031765 -0.077041 0
-0.015687 -0.026980 0
0.000000 0.000000 0
0.000000 0.000000 0
-0.208923 -0.015155 0
-0.308772 -0.030026 0
-0.345050 -0.043828 0
-0.360180 -0.057965 0
-0.369361 -0.072990 0
-0.376682 -0.088872 0
-0.383122 -0.105447 0
-0.388901 -0.122559 0
-0.394065 -0.140092 0
-0.398627 -0.157953 0
-0.402589 -0.176067 0
-0.405955 -0.194366 0
-0.408724 -0.212786 0
-0.410896 -0.231265 0
-0.412468 -0.249737 0
-0.413432 -0.268137 0
-0.413779 -0.286395 0
-0.413492 -0.304437 0
-0.412553 -0.322184 0
-0.410937 -0.339550 0
-0.408615 -0.356440 0
-0.405553 -0.372751 0
-0.401712 -0.388370 0
-0.397051 -0.403171 0
-0.391526 -0.417017 0
-0.385089 -0.429757 0
-0.377695 -0.441227 0
-0.369301 -0.451248 0
-0.359866 -0.459631 0
-0.349358 -0.466175 0
-0.337754 -0.470669 0
-0.325041 -0.472897 0
-0.311225 -0.472642 0
-0.296326 -0.469687 0
-0.280386 -0.463827 0
-0.263468 -0.454867 0
-0.245656 -0.442636 0
-0.227058 -0.426992 0
-0.207805 -0.407829 0
-0.188048 -0.385089 0
-0.167957 -0.358768 0
-0.147717 -0.328920 0
-0.127522 -0.295654 0
-0.107567 -0.259125 0
-0.088036 -0.219494 0
-0.069087 -0.176874 0
-0.050831 -0.131226 0
-0.033309 -0.082206 0
-0.016448 -0.028895 0
0.000000 0.000000 0
0.000000 0.000000 0
-0.212781 -0.005595 0
-0.313409 -0.016101 0
-0.349713 -0.028770 0
-0.365004 -0.042934 0
-0.374459 -0.058336 0
-0.382073 -0.074708 0
-0.388787 -0.091812 0
-0.394810 -0.109472 0
-0.400189 -0.127564 0
-0.404940 -0.145994 0
-0.409071 -0.164685 0
-0.412589 -0.183571 0
-0.415501 -0.202588 0
-0.417811 -0.221675 0
-0.419518 -0.240770 0
-0.420622 -0.259811 0
-0.421113 -0.278730 0
-0.420981 -0.297459 0
-0.420209 -0.315921 0
-0.418772 -0.334035 0
-0.416643 -0.351712 0
-0.413788 -0.368852 0
-0.410166 -0.385346 0
-0.405734 -0.401072 0
-0.400443 -0.415893 0
-0.394243 -0.429661 0
-0.387082 -0.442210 0
-0.378908 -0.453359 0
-0.369673 -0.462912 0
-0.359335 -0.470661 0
-0.347861 -0.476385 0
-0.335229 -0.479852 0
-0.321433 -0.480828 0
-0.306485 -0.479077 0
-0.290418 -0.474368 0
-0.273287 -0.466483 0
-0.255174 -0.455220 0
-0.236185 -0.440405 0
-0.216451 -0.421897 0
-0.196126 -0.399600 0
-0.175386 -0.373467 0
-0.154424 -0.343510 0
-0.133445 -0.309794 0
-0.112658 -0.272433 0
-0.092263 -0.231550 0
-0.072436 -0.187224 0