# vtk DataFile Version 2.0
generated by CFD-lab course output (written by Tobias Neckel) 
ASCII

DATASET STRUCTURED_GRID
DIMENSIONS  51 51 1 
POINTS 2601 float

0.000000 0.000000 0
0.020000 0.000000 0
0.040000 0.000000 0
0.060000 0.000000 0
0.080000 0.000000 0
0.100000 0.000000 0
0.120000 0.000000 0
0.140000 0.000000 0
0.160000 0.000000 0
0.180000 0.000000 0
0.200000 0.000000 0
0.220000 0.000000 0
0.240000 0.000000 0
0.260000 0.000000 0
0.280000 0.000000 0
0.300000 0.000000 0
0.320000 0.000000 0
0.340000 0.000000 0
0.360000 0.000000 0
0.380000 0.000000 0
0.400000 0.000000 0
0.420000 0.000000 0
0.440000 0.000000 0
0.460000 0.000000 0
0.480000 0.000000 0
0.500000 0.000000 0
0.520000 0.000000 0
0.540000 0.000000 0
0.560000 0.000000 0
0.580000 0.000000 0
0.600000 0.000000 0
0.620000 0.000000 0
0.640000 0.000000 0
0.660000 0.000000 0
0.680000 0.000000 0
0.700000 0.000000 0
0.720000 0.000000 0
0.740000 0.000000 0
0.760000 0.000000 0
0.780000 0.000000 0
0.800000 0.000000 0
0.820000 0.000000 0
0.840000 0.000000 0
0.860000 0.000000 0
0.880000 0.000000 0
0.900000 0.000000 0
0.920000 0.000000 0
0.940000 0.000000 0
0.960000 0.000000 0
0.980000 0.000000 0
1.000000 0.000000 0
0.000000 0.020000 0
0.020000 0.020000 0
0.040000 0.020000 0
0.060000 0.020000 0
0.080000 0.020000 0
0.100000 0.020000 0
0.120000 0.020000 0
0.140000 0.020000 0
0.160000 0.020000 0
0.180000 0.020000 0
0.200000 0.020000 0
0.220000 0.020000 0
0.240000 0.020000 0
0.260000 0.020000 0
0.280000 0.020000 0
0.300000 0.020000 0
0.320000 0.020000 0
0.340000 0.020000 0
0.360000 0.020000 0
0.380000 0.020000 0
0.400000 0.020000 0
0.420000 0.020000 0
0.440000 0.020000 0
0.460000 0.020000 0
0.480000 0.020000 0
0.500000 0.020000 0
0.520000 0.020000 0
0.540000 0.020000 0
0.560000 0.020000 0
0.580000 0.020000 0
0.600000 0.020000 0
0.620000 0.020000 0
0.640000 0.020000 0
0.660000 0.020000 0
0.680000 0.020000 0
0.700000 0.020000 0
0.720000 0.020000 0
0.740000 0.020000 0
0.760000 0.020000 0
0.780000 0.020000 0
0.800000 0.020000 0
0.820000 0.020000 0
0.840000 0.020000 0
0.860000 0.020000 0
0.880000 0.020000 0
0.900000 0.020000 0
0.920000 0.020000 0
0.940000 0.020000 0
0.960000 0.020000 0
0.980000 0.020000 0
1.000000 0.020000 0
0.000000 0.040000 0
0.020000 0.040000 0
0.040000 0.040000 0
0.060000 0.040000 0
0.080000 0.040000 0
0.100000 0.040000 0
0.120000 0.040000 0
0.140000 0.040000 0
0.160000 0.040000 0
0.180000 0.040000 0
0.200000 0.040000 0
0.220000 0.040000 0
0.240000 0.040000 0
0.260000 0.040000 0
0.280000 0.040000 0
0.300000 0.040000 0
0.320000 0.040000 0
0.340000 0.040000 0
0.360000 0.040000 0
0.380000 0.040000 0
0.400000 0.040000 0
0.420000 0.040000 0
0.440000 0.040000 0
0.460000 0.040000 0
0.480000 0.040000 0
0.500000 0.040000 0
0.520000 0.040000 0
0.540000 0.040000 0
0.560000 0.040000 0
0.580000 0.040000 0
0.600000 0.040000 0
0.620000 0.040000 0
0.640000 0.040000 0
0.660000 0.040000 0
0.680000 0.040000 0
0.700000 0.040000 0
0.720000 0.040000 0
0.740000 0.040000 0
0.760000 0.040000 0
0.780000 0.040000 0
0.800000 0.040000 0
0.820000 0.040000 0
0.840000 0.040000 0
0.860000 0.040000 0
0.880000 0.040000 0
0.900000 0.040000 0
0.920000 0.040000 0
0.940000 0.040000 0
0.960000 0.040000 0
0.980000 0.040000 0
1.000000 0.040000 0
0.000000 0.060000 0
0.020000 0.060000 0
0.040000 0.060000 0
0.060000 0.060000 0
0.080000 0.060000 0
0.100000 0.060000 0
0.120000 0.060000 0
0.140000 0.060000 0
0.160000 0.060000 0
0.180000 0.060000 0
0.200000 0.060000 0
0.220000 0.060000 0
0.240000 0.060000 0
0.260000 0.060000 0
0.280000 0.060000 0
0.300000 0.060000 0
0.320000 0.060000 0
0.340000 0.060000 0
0.360000 0.060000 0
0.380000 0.060000 0
0.400000 0.060000 0
0.420000 0.060000 0
0.440000 0.060000 0
0.460000 0.060000 0
0.480000 0.060000 0
0.500000 0.060000 0
0.520000 0.060000 0
0.540000 0.060000 0
0.560000 0.060000 0
0.580000 0.060000 0
0.600000 0.060000 0
0.620000 0.060000 0
0.640000 0.060000 0
0.660000 0.060000 0
0.680000 0.060000 0
0.700000 0.060000 0
0.720000 0.060000 0
0.740000 0.060000 0
0.760000 0.060000 0
0.780000 0.060000 0
0.800000 0.060000 0
0.820000 0.060000 0
0.840000 0.060000 0
0.860000 0.060000 0
0.880000 0.060000 0
0.900000 0.060000 0
0.920000 0.060000 0
0.940000 0.060000 0
0.960000 0.060000 0
0.980000 0.060000 0
1.000000 0.060000 0
0.000000 0.080000 0
0.020000 0.080000 0
0.040000 0.080000 0
0.060000 0.080000 0
0.080000 0.080000 0
0.100000 0.080000 0
0.120000 0.080000 0
0.140000 0.080000 0
0.160000 0.080000 0
0.180000 0.080000 0
0.200000 0.080000 0
0.220000 0.080000 0
0.240000 0.080000 0
0.260000 0.080000 0
0.280000 0.080000 0
0.300000 0.080000 0
0.320000 0.080000 0
0.340000 0.080000 0
0.360000 0.080000 0
0.380000 0.080000 0
0.400000 0.080000 0
0.420000 0.080000 0
0.440000 0.080000 0
0.460000 0.080000 0
0.480000 0.080000 0
0.500000 0.080000 0
0.520000 0.080000 0
0.540000 0.080000 0
0.560000 0.080000 0
0.580000 0.080000 0
0.600000 0.080000 0
0.620000 0.080000 0
0.640000 0.080000 0
0.660000 0.080000 0
0.680000 0.080000 0
0.700000 0.080000 0
0.720000 0.080000 0
0.740000 0.080000 0
0.760000 0.080000 0
0.780000 0.080000 0
0.800000 0.080000 0
0.820000 0.080000 0
0.840000 0.080000 0
0.860000 0.080000 0
0.880000 0.080000 0
0.900000 0.080000 0
0.920000 0.080000 0
0.940000 0.080000 0
0.960000 0.080000 0
0.980000 0.080000 0
1.000000 0.080000 0
0.000000 0.100000 0
0.020000 0.100000 0
0.040000 0.100000 0
0.060000 0.100000 0
0.080000 0.100000 0
0.100000 0.100000 0
0.120000 0.100000 0
0.140000 0.100000 0
0.160000 0.100000 0
0.180000 0.100000 0
0.200000 0.100000 0
0.220000 0.100000 0
0.240000 0.100000 0
0.260000 0.100000 0
0.280000 0.100000 0
0.300000 0.100000 0
0.320000 0.100000 0
0.340000 0.100000 0
0.360000 0.100000 0
0.380000 0.100000 0
0.400000 0.100000 0
0.420000 0.100000 0
0.440000 0.100000 0
0.460000 0.100000 0
0.480000 0.100000 0
0.500000 0.100000 0
0.520000 0.100000 0
0.540000 0.100000 0
0.560000 0.100000 0
0.580000 0.100000 0
0.600000 0.100000 0
0.620000 0.100000 0
0.640000 0.100000 0
0.660000 0.100000 0
0.680000 0.100000 0
0.700000 0.100000 0
0.720000 0.100000 0
0.740000 0.100000 0
0.760000 0.100000 0
0.780000 0.100000 0
0.800000 0.100000 0
0.820000 0.100000 0
0.840000 0.100000 0
0.860000 0.100000 0
0.880000 0.100000 0
0.900000 0.100000 0
0.920000 0.100000 0
0.940000 0.100000 0
0.960000 0.100000 0
0.980000 0.100000 0
1.000000 0.100000 0
0.000000 0.120000 0
0.020000 0.120000 0
0.040000 0.120000 0
0.060000 0.120000 0
0.080000 0.120000 0
0.100000 0.120000 0
0.120000 0.120000 0
0.140000 0.120000 0
0.160000 0.120000 0
0.180000 0.120000 0
0.200000 0.120000 0
0.220000 0.120000 0
0.240000 0.120000 0
0.260000 0.120000 0
0.280000 0.120000 0
0.300000 0.120000 0
0.320000 0.120000 0
0.340000 0.120000 0
0.360000 0.120000 0
0.380000 0.120000 0
0.400000 0.120000 0
0.420000 0.120000 0
0.440000 0.120000 0
0.460000 0.120000 0
0.480000 0.120000 0
0.500000 0.120000 0
0.520000 0.120000 0
0.540000 0.120000 0
0.560000 0.120000 0
0.580000 0.120000 0
0.600000 0.120000 0
0.620000 0.120000 0
0.640000 0.120000 0
0.660000 0.120000 0
0.680000 0.120000 0
0.700000 0.120000 0
0.720000 0.120000 0
0.740000 0.120000 0
0.760000 0.120000 0
0.780000 0.120000 0
0.800000 0.120000 0
0.820000 0.120000 0
0.840000 0.120000 0
0.860000 0.120000 0
0.880000 0.120000 0
0.900000 0.120000 0
0.920000 0.120000 0
0.940000 0.120000 0
0.960000 0.120000 0
0.980000 0.120000 0
1.000000 0.120000 0
0.000000 0.140000 0
0.020000 0.140000 0
0.040000 0.140000 0
0.060000 0.140000 0
0.080000 0.140000 0
0.100000 0.140000 0
0.120000 0.140000 0
0.140000 0.140000 0
0.160000 0.140000 0
0.180000 0.140000 0
0.200000 0.140000 0
0.220000 0.140000 0
0.240000 0.140000 0
0.260000 0.140000 0
0.280000 0.140000 0
0.300000 0.140000 0
0.320000 0.140000 0
0.340000 0.140000 0
0.360000 0.140000 0
0.380000 0.140000 0
0.400000 0.140000 0
0.420000 0.140000 0
0.440000 0.140000 0
0.460000 0.140000 0
0.480000 0.140000 0
0.500000 0.140000 0
0.520000 0.140000 0
0.540000 0.140000 0
0.560000 0.140000 0
0.580000 0.140000 0
0.600000 0.140000 0
0.620000 0.140000 0
0.640000 0.140000 0
0.660000 0.140000 0
0.680000 0.140000 0
0.700000 0.140000 0
0.720000 0.140000 0
0.740000 0.140000 0
0.760000 0.140000 0
0.780000 0.140000 0
0.800000 0.140000 0
0.820000 0.140000 0
0.840000 0.140000 0
0.860000 0.140000 0
0.880000 0.140000 0
0.900000 0.140000 0
0.920000 0.140000 0
0.940000 0.140000 0
0.960000 0.140000 0
0.980000 0.140000 0
1.000000 0.140000 0
0.000000 0.160000 0
0.020000 0.160000 0
0.040000 0.160000 0
0.060000 0.160000 0
0.080000 0.160000 0
0.100000 0.160000 0
0.120000 0.160000 0
0.140000 0.160000 0
0.160000 0.160000 0
0.180000 0.160000 0
0.200000 0.160000 0
0.220000 0.160000 0
0.240000 0.160000 0
0.260000 0.160000 0
0.280000 0.160000 0
0.300000 0.160000 0
0.320000 0.160000 0
0.340000 0.160000 0
0.360000 0.160000 0
0.380000 0.160000 0
0.400000 0.160000 0
0.420000 0.160000 0
0.440000 0.160000 0
0.460000 0.160000 0
0.480000 0.160000 0
0.500000 0.160000 0
0.520000 0.160000 0
0.540000 0.160000 0
0.560000 0.160000 0
0.580000 0.160000 0
0.600000 0.160000 0
0.620000 0.160000 0
0.640000 0.160000 0
0.660000 0.160000 0
0.680000 0.160000 0
0.700000 0.160000 0
0.720000 0.160000 0
0.740000 0.160000 0
0.760000 0.160000 0
0.780000 0.160000 0
0.800000 0.160000 0
0.820000 0.160000 0
0.840000 0.160000 0
0.860000 0.160000 0
0.880000 0.160000 0
0.900000 0.160000 0
0.920000 0.160000 0
0.940000 0.160000 0
0.960000 0.160000 0
0.980000 0.160000 0
1.000000 0.160000 0
0.000000 0.180000 0
0.020000 0.180000 0
0.040000 0.180000 0
0.060000 0.180000 0
0.080000 0.180000 0
0.100000 0.180000 0
0.120000 0.180000 0
0.140000 0.180000 0
0.160000 0.180000 0
0.180000 0.180000 0
0.200000 0.180000 0
0.220000 0.180000 0
0.240000 0.180000 0
0.260000 0.180000 0
0.280000 0.180000 0
0.300000 0.180000 0
0.320000 0.180000 0
0.340000 0.180000 0
0.360000 0.180000 0
0.380000 0.180000 0
0.400000 0.180000 0
0.420000 0.180000 0
0.440000 0.180000 0
0.460000 0.180000 0
0.480000 0.180000 0
0.500000 0.180000 0
0.520000 0.180000 0
0.540000 0.180000 0
0.560000 0.180000 0
0.580000 0.180000 0
0.600000 0.180000 0
0.620000 0.180000 0
[...]
POINT_DATA 2601 

VECTORS velocity float
0.000000 0.000000 0
0.000000 0.000000 0
0.000000 0.000000 0
0.000000 0.000000 0
0.000000 0.000000 0
0.000000 0.000000 0
0.000000 0.000000 0
0.000000 0.000000 0
0.000000 0.000000 0
0.000000 0.000000 0
0.000000 0.000000 0
0.000000 0.000000 0
0.000000 0.000000 0
0.000000 0.000000 0
0.000000 0.000000 0
0.000000 0.000000 0
0.000000 0.000000 0
-0.000000 0.000000 0
-0.000000 0.000000 0
-0.000000 0.000000 0
-0.000000 0.000000 0
-0.000000 0.000000 0
-0.000000 0.000000 0
-0.000000 0.000000 0
-0.000000 0.000000 0
-0.000000 0.000000 0
-0.000000 0.000000 0
-0.000000 0.000000 0
-0.000000 0.000000 0
-0.000000 0.000000 0
-0.000000 0.000000 0
-0.000000 0.000000 0
-0.000000 0.000000 0
0.000000 0.000000 0
0.000000 0.000000 0
0.000000 0.000000 0
0.000000 0.000000 0
0.000000 0.000000 0
0.000000 0.000000 0
0.000000 0.000000 0
0.000000 0.000000 0
0.000000 0.000000 0
0.000000 0.000000 0
0.000000 0.000000 0
0.000000 0.000000 0
0.000000 0.000000 0
0.000000 0.000000 0
0.000000 0.000000 0
0.000000 0.000000 0
0.000000 0.000000 0
0.000000 0.000000 0
0.000000 0.000000 0
-0.000882 -0.001595 0
-0.001792 -0.003256 0
-0.002752 -0.005042 0
-0.003782 -0.007007 0
-0.004899 -0.009205 0
-0.006120 -0.011693 0
-0.007465 -0.014534 0
-0.008953 -0.017796 0
-0.010607 -0.021557 0
-0.012453 -0.025905 0
-0.014517 -0.030938 0
-0.016831 -0.036763 0
-0.019426 -0.043496 0
-0.022336 -0.051260 0
-0.025593 -0.060177 0
-0.029222 -0.070360 0
-0.033245 -0.081901 0
-0.037668 -0.094853 0
-0.042477 -0.109209 0
-0.047635 -0.124875 0
-0.053069 -0.141647 0
-0.058667 -0.159178 0
-0.064274 -0.176970 0
-0.069690 -0.194363 0
-0.074674 -0.210559 0
-0.078960 -0.224662 0
-0.082274 -0.235760 0
-0.084364 -0.243017 0
-0.085031 -0.245780 0
-0.084159 -0.243683 0
-0.081735 -0.236707 0
-0.077861 -0.225210 0
-0.072743 -0.209880 0
-0.066667 -0.191658 0
-0.059964 -0.171611 0
-0.052974 -0.150807 0
-0.046006 -0.130205 0
-0.039319 -0.110575 0
-0.033102 -0.092463 0
-0.027474 -0.076194 0
-0.022492 -0.061897 0
-0.018159 -0.049550 0
-0.014444 -0.039027 0
-0.011289 -0.030135 0
-0.008625 -0.022649 0
-0.006377 -0.016335 0
-0.004467 -0.010955 0
-0.002820 -0.006272 0
-0.001359 -0.002038 0
0.000000 0.000000 0
0.000000 0.000000 0
-0.001725 -0.003104 0
-0.003499 -0.006326 0
-0.005362 -0.009772 0
-0.007344 -0.013536 0
-0.009476 -0.017711 0
-0.011783 -0.022391 0
-0.014293 -0.027674 0
-0.017032 -0.033665 0
-0.020031 -0.040474 0
-0.023321 -0.048220 0
-0.026932 -0.057026 0
-0.030898 -0.067016 0
-0.035248 -0.078313 0
-0.040011 -0.091027 0
-0.045206 -0.105247 0
-0.050845 -0.121031 0
-0.056924 -0.138384 0
-0.063419 -0.157250 0
-0.070285 -0.177487 0
-0.077447 -0.198859 0
-0.084794 -0.221013 0
-0.092181 -0.243478 0
-0.099424 -0.265663 0
-0.106301 -0.286861 0
-0.112559 -0.306278 0
-0.117921 -0.323060 0
-0.122104 -0.336350 0
-0.124841 -0.345349 0
-0.125903 -0.349393 0
-0.125132 -0.348028 0
-0.122462 -0.341078 0
-0.117935 -0.328688 0
-0.111709 -0.311334 0
-0.104046 -0.289791 0
-0.095284 -0.265058 0
-0.085812 -0.238266 0
-0.076020 -0.210561 0
-0.066276 -0.183006 0
-0.056888 -0.156495 0
-0.048094 -0.131707 0
-0.040051 -0.109087 0
-0.032843 -0.088863 0
-0.026488 -0.071072 0
-0.020956 -0.055610 0
-0.016178 -0.042265 0
-0.012066 -0.030762 0
-0.008512 -0.020778 0
-0.005404 -0.011956 0
-0.002614 -0.003894 0
0.000000 0.000000 0
0.000000 0.000000 0
-0.002494 -0.004447 0
-0.005048 -0.009042 0
-0.007707 -0.013917 0
-0.010509 -0.019188 0
-0.013482 -0.024964 0
-0.016652 -0.031347 0
-0.020043 -0.038439 0
-0.023674 -0.046343 0
-0.027568 -0.055158 0
-0.031744 -0.064981 0
-0.036221 -0.075903 0
-0.041014 -0.088006 0
-0.046135 -0.101357 0
-0.051593 -0.116000 0
-0.057389 -0.131953 0
-0.063515 -0.149200 0
-0.069954 -0.167681 0
-0.076676 -0.187289 0
-0.083636 -0.207864 0
-0.090772 -0.229181 0
-0.098001 -0.250947 0
-0.105213 -0.272792 0
-0.112270 -0.294259 0
-0.118997 -0.314803 0
-0.125189 -0.333790 0
-0.130608 -0.350511 0
-0.134995 -0.364211 0
-0.138086 -0.374139 0
-0.139640 -0.379614 0
-0.139462 -0.380100 0
-0.137433 -0.375281 0
-0.133535 -0.365115 0
-0.127853 -0.349858 0
-0.120578 -0.330057 0
-0.111988 -0.306497 0
-0.102419 -0.280132 0
-0.092236 -0.251992 0
-0.081803 -0.223101 0
-0.071450 -0.194399 0
-0.061460 -0.166680 0
-0.052049 -0.140562 0
-0.043367 -0.116465 0
-0.035496 -0.094618 0
-0.028461 -0.075081 0
-0.022235 -0.057769 0
-0.016752 -0.042483 0
-0.011919 -0.028932 0
-0.007616 -0.016746 0
-0.003701 -0.005472 0
0.000000 0.000000 0
0.000000 0.000000 0
-0.003162 -0.005563 0
-0.006382 -0.011280 0
-0.009704 -0.017287 0
-0.013158 -0.023703 0
-0.016768 -0.030630 0
-0.020549 -0.038162 0
-0.024515 -0.046384 0
-0.028673 -0.055373 0
-0.033032 -0.065201 0
-0.037599 -0.075928 0
-0.042377 -0.087607 0
-0.047371 -0.100278 0
-0.052585 -0.113968 0
-0.058020 -0.128690 0
-0.063676 -0.144439 0
-0.069554 -0.161193 0
-0.075648 -0.178911 0
-0.081951 -0.197526 0
-0.088447 -0.216944 0
-0.095107 -0.237029 0
-0.101888 -0.257595 0
-0.108717 -0.278384 0
-0.115494 -0.299052 0
-0.122076 -0.319152 0
-0.128278 -0.338124 0
-0.133872 -0.355298 0
-0.138595 -0.369925 0
-0.142171 -0.381217 0
-0.144327 -0.388421 0
-0.144833 -0.390902 0
-0.143529 -0.388225 0
-0.140350 -0.380227 0
-0.135341 -0.367048 0
-0.128656 -0.349126 0
-0.120540 -0.327154 0
-0.111305 -0.302001 0
-0.101295 -0.274628 0
-0.090856 -0.246003 0
-0.080314 -0.217032 0
-0.069951 -0.188507 0
-0.059998 -0.161073 0
-0.050626 -0.135213 0
-0.041951 -0.111244 0
-0.034030 -0.089327 0
-0.026872 -0.069475 0
-0.020440 -0.051573 0
-0.014662 -0.035392 0
-0.009429 -0.020600 0
-0.004602 -0.006751 0
0.000000 0.000000 0
0.000000 0.000000 0
-0.003715 -0.006418 0
-0.007474 -0.012974 0
-0.011312 -0.019794 0
-0.015249 -0.026982 0
-0.019296 -0.034626 0
-0.023459 -0.042799 0
-0.027738 -0.051567 0
-0.032132 -0.060982 0
-0.036641 -0.071091 0
-0.041263 -0.081933 0
-0.046002 -0.093541 0
-0.050861 -0.105941 0
-0.055847 -0.119156 0
-0.060972 -0.133206 0
-0.066251 -0.148106 0
-0.071700 -0.163869 0
-0.077337 -0.180501 0
-0.083179 -0.197996 0
-0.089236 -0.216328 0
-0.095507 -0.235437 0
-0.101972 -0.255208 0
-0.108584 -0.275456 0
-0.115259 -0.295896 0
-0.121871 -0.316128 0
-0.128242 -0.335621 0
-0.134146 -0.353712 0
-0.139314 -0.369633 0
-0.143452 -0.382548 0
-0.146262 -0.391626 0
-0.147475 -0.396132 0
-0.146891 -0.395515 0
-0.144400 -0.389493 0
-0.140011 -0.378104 0
-0.133848 -0.361709 0
-0.126139 -0.340953 0
-0.117190 -0.316688 0
-0.107344 -0.289874 0
-0.096953 -0.261485 0
-0.086345 -0.232433 0
-0.075806 -0.203515 0
-0.065570 -0.175379 0
-0.055814 -0.148522 0
-0.046663 -0.123284 0
-0.038186 -0.099860 0
-0.030408 -0.078307 0
-0.023309 -0.058561 0
-0.016833 -0.040439 0
-0.010885 -0.023647 0
-0.005333 -0.007770 0
0.000000 0.000000 0
0.000000 0.000000 0
-0.004148 -0.007004 0
-0.008320 -0.014116 0
-0.012536 -0.021442 0
-0.016803 -0.029065 0
-0.021121 -0.037055 0
-0.025484 -0.045470 0
-0.029886 -0.054356 0
-0.034323 -0.063755 0
-0.038792 -0.073702 0
-0.043293 -0.084232 0
-0.047836 -0.095377 0
-0.052431 -0.107173 0
-0.057099 -0.119658 0
-0.061864 -0.132875 0
-0.066756 -0.146872 0
-0.071809 -0.161698 0
-0.077059 -0.177403 0
-0.082540 -0.194026 0
-0.088278 -0.211589 0
-0.094288 -0.230077 0
-0.100564 -0.249423 0
-0.107074 -0.269481 0
-0.113746 -0.290008 0
-0.120465 -0.310635 0
-0.127063 -0.330856 0
-0.133318 -0.350019 0
-0.138959 -0.367344 0
-0.143680 -0.381961 0
-0.147161 -0.392973 0
-0.149100 -0.399547 0
-0.149252 -0.401013 0
-0.147462 -0.396963 0
-0.143694 -0.387317 0
-0.138037 -0.372344 0
-0.130701 -0.352639 0
-0.121985 -0.329042 0
-0.112242 -0.302538 0
-0.101841 -0.274147 0
-0.091126 -0.244829 0
-0.080402 -0.215424 0
-0.069914 -0.186612 0
-0.059847 -0.158908 0
-0.050328 -0.132662 0
-0.041433 -0.108080 0
-0.033191 -0.085235 0
-0.025588 -0.064078 0
-0.018574 -0.044450 0
-0.012062 -0.026082 0
-0.005927 -0.008586 0
0.000000 0.000000 0
0.000000 0.000000 0
-0.004470 -0.007333 0
-0.008941 -0.014742 0
-0.013416 -0.022303 0
-0.017888 -0.030082 0
-0.022348 -0.038134 0
-0.026785 -0.046504 0
-0.031191 -0.055232 0
-0.035560 -0.064357 0
-0.039895 -0.073916 0
-0.044205 -0.083950 0
-0.048504 -0.094502 0
-0.052817 -0.105624 0
-0.057175 -0.117375 0
-0.061615 -0.129821 0
-0.066178 -0.143036 0
-0.070910 -0.157097 0
-0.075858 -0.172082 0
-0.081066 -0.188061 0
-0.086569 -0.205083 0
-0.092392 -0.223163 0
-0.098540 -0.242266 0
-0.104991 -0.262279 0
-0.111687 -0.282992 0
-0.118524 -0.304073 0
-0.125346 -0.325044 0
-0.131944 -0.345277 0
-0.138048 -0.363997 0
-0.143346 -0.380312 0
-0.147502 -0.393273 0
-0.150181 -0.401958 0
-0.151098 -0.405580 0
-0.150046 -0.403594 0
-0.146938 -0.395783 0
-0.141823 -0.382307 0
-0.134880 -0.363684 0
-0.126399 -0.340731 0
-0.116740 -0.314454 0
-0.106290 -0.285927 0
-0.095423 -0.256184 0
-0.084469 -0.226137 0
-0.073696 -0.196529 0
-0.063304 -0.167914 0
-0.053431 -0.140672 0
-0.044156 -0.115020 0
-0.035510 -0.091035 0
-0.027480 -0.068673 0
-0.020018 -0.047782 0
-0.013039 -0.028102 0
-0.006421 -0.009263 0
0.000000 0.000000 0
0.000000 0.000000 0
-0.004694 -0.007434 0
-0.009367 -0.014910 0
-0.014004 -0.022483 0
-0.018588 -0.030201 0
-0.023102 -0.038108 0
-0.027533 -0.046246 0
-0.031874 -0.054654 0
-0.036124 -0.063375 0
-0.040292 -0.072454 0
-0.044395 -0.081941 0
-0.048457 -0.091895 0
-0.052512 -0.102381 0
-0.056599 -0.113476 0
-0.060764 -0.125262 0
-0.065057 -0.137830 0
-0.069530 -0.151276 0
-0.074235 -0.165694 0
-0.079222 -0.181170 0
-0.084533 -0.197775 0
-0.090201 -0.215544 0
-0.096238 -0.234468 0
-0.102633 -0.254464 0
-0.109343 -0.275358 0
-0.116278 -0.296856 0
-0.123299 -0.318522 0
-0.130209 -0.339759 0
-0.136748 -0.359811 0
-0.142605 -0.377780 0
-0.147428 -0.392678 0
-0.150859 -0.403506 0
-0.152568 -0.409363 0
-0.152299 -0.409562 0
-0.149908 -0.403738 0
-0.145393 -0.391915 0
-0.138897 -0.374513 0
-0.130689 -0.352302 0
-0.121132 -0.326293 0
-0.110632 -0.297612 0
-0.099591 -0.267374 0
-0.088373 -0.236580 0
-0.077276 -0.206057 0
-0.066525 -0.176427 0
-0.056275 -0.148113 0
-0.046613 -0.121360 0
-0.037575 -0.096257 0
-0.029147 -0.072761 0
-0.021280 -0.050718 0
-0.013888 -0.029871 0
-0.006849 -0.009854 0
0.000000 0.000000 0
0.000000 0.000000 0
-0.004839 -0.007337 0
-0.009636 -0.014691 0
-0.014363 -0.022095 0
-0.018991 -0.029589 0
-0.023502 -0.037210 0
-0.027881 -0.045000 0
-0.032125 -0.053002 0
-0.036238 -0.061264 0
-0.040236 -0.069842 0
-0.044143 -0.078795 0
-0.047992 -0.088192 0
-0.051822 -0.098111 0
-0.055679 -0.108638 0
-0.059614 -0.119865 0
-0.063681 -0.131894 0
-0.067934 -0.144829 0
-0.072431 -0.158773 0
-0.077223 -0.173826 0
-0.082359 -0.190069 0
-0.087876 -0.207558 0
-0.093797 -0.226306 0
-0.100122 -0.246260 0
-0.106821 -0.267285 0
-0.113823 -0.289129 0
-0.121006 -0.311401 0
-0.128189 -0.333548 0
-0.135128 -0.354844 0
-0.141514 -0.374399 0
-0.146990 -0.391200 0
-0.151175 -0.404184 0
-0.153700 -0.412343 0
-0.154257 -0.414850 0
-0.152644 -0.411180 0
-0.148800 -0.401202 0
-0.142820 -0.385215 0
-0.134947 -0.363913 0
-0.125537 -0.338293 0
-0.115010 -0.309521 0
-0.103796 -0.278791 0
-0.092297 -0.247202 0
-0.080847 -0.215681 0
-0.069703 -0.184938 0
-0.059043 -0.155460 0
-0.048971 -0.127533 0
-0.039527 -0.101269 0
-0.030702 -0.076633 0
-0.022444 -0.053469 0
-0.014664 -0.031515 0
-0.007237 -0.010401 0
0.000000 0.000000 0
0.000000 0.000000 0
-0.004922 -0.007075 0
-0.009785 -0.014150 0
-0.014548 -0.021246 0
-0.019177 -0.028395 0
-0.023650 -0.035634 0
-0.027955 -0.043006 0
-0.032090 -0.050560 0
-0.036067 -0.058351 0
-0.039906 -0.066439 0
-0.043638 -0.074894 0
-0.047300 -0.083789 0
-0.050936 -0.093208 0
-0.054596 -0.103243 0
-0.058332 -0.113990 0
-0.062201 -0.125556 0
-0.066259 -0.138047 0
-0.070564 -0.151574 0
-0.075172 -0.166241 0
-0.080135 -0.182143 0
-0.085496 -0.199351 0
-0.091286 -0.217898 0
-0.097518 -0.237765 0
-0.104176 -0.258853 0
-0.111207 -0.280957 0
-0.118510 -0.303735 0
-0.125924 -0.326684 0
-0.133219 -0.349119 0
-0.140099 -0.370172 0
-0.146205 -0.388821 0
-0.151138 -0.403954 0
-0.154495 -0.414466 0
-0.155918 -0.419392 0
-0.155142 -0.418042 0
-0.152043 -0.410115 0
-0.146660 -0.395762 0
-0.139198 -0.375577 0
-0.129997 -0.350519 0
-0.119484 -0.321775 0
-0.108118 -0.290610 0
-0.096336 -0.258228 0
-0.084515 -0.225663 0
-0.072951 -0.193730 0
-0.061849 -0.162997 0
-0.051335 -0.133810 0
-0.041461 -0.106313 0
-0.032223 -0.080488 0
-0.023569 -0.056182 0
-0.015407 -0.033124 0
-0.007607 -0.010934 0
0.000000 0.000000 0
0.000000 0.000000 0
-0.004960 -0.006675 0
-0.009847 -0.013343 0
-0.014611 -0.020020 0
-0.019214 -0.026736 0
-0.023631 -0.033527 0
-0.027852 -0.040442 0
-0.031880 -0.047532 0
-0.035729 -0.054858 0
-0.039426 -0.062482 0
-0.043003 -0.070478 0
-0.046502 -0.078923 0
-0.049969 -0.087900 0
-0.053455 -0.097503 0
-0.057014 -0.107830 0
-0.060702 -0.118984 0
-0.064577 -0.131076 0
-0.068699 -0.144217 0
-0.073124 -0.158518 0
-0.077908 -0.174081 0
-0.083101 -0.190992 0
-0.088742 -0.209306 0
-0.094855 -0.229033 0
-0.101440 -0.250112 0
-0.108462 -0.272384 0
-0.115841 -0.295562 0
-0.123437 -0.319198 0
-0.131042 -0.342656 0
-0.138374 -0.365104 0
-0.145078 -0.385527 0
-0.150744 -0.402777 0
-0.154941 -0.415669 0
-0.157263 -0.423108 0
-0.157381 -0.424235 0
-0.155103 -0.418567 0
-0.150403 -0.406085 0
-0.143437 -0.387254 0
-0.134519 -0.362967 0
-0.124078 -0.334411 0
-0.112594 -0.302912 0
-0.100542 -0.269774 0
-0.088343 -0.236151 0
-0.076336 -0.202971 0
-0.064762 -0.170904 0
-0.053774 -0.140365 0
-0.043441 -0.111550 0
-0.033767 -0.084464 0
-0.024701 -0.058960 0
-0.016148 -0.034763 0
-0.007974 -0.011475 0
0.000000 0.000000 0
0.000000 0.000000 0
-0.004966 -0.006158 0
-0.009850 -0.012314 0
-0.014593 -0.018483 0
-0.019155 -0.024697 0
-0.023509 -0.030997 0
-0.027647 -0.037431 0
-0.031574 -0.044054 0
-0.035309 -0.050928 0
-0.038879 -0.058117 0
-0.042320 -0.065693 0
-0.045676 -0.073732 0
-0.048993 -0.082316 0
-0.052322 -0.091535 0
-0.055718 -0.101484 0
-0.059236 -0.112266 0
-0.062934 -0.123989 0
-0.066873 -0.136765 0
-0.071112 -0.150707 0
-0.075709 -0.165927 0
-0.080719 -0.182522 0
-0.086191 -0.200567 0
-0.092159 -0.220101 0
-0.098638 -0.241099 0
-0.105611 -0.263449 0
-0.113020 -0.286920 0
-0.120750 -0.311123 0
-0.128614 -0.335480 0
-0.136350 -0.359205 0
-0.143612 -0.381306 0
-0.149989 -0.400620 0
-0.155024 -0.415895 0
-0.158267 -0.425918 0
-0.159331 -0.429665 0
-0.157948 -0.426459 0
-0.154020 -0.416091 0
-0.147644 -0.398871 0
-0.139097 -0.375594 0
-0.128797 -0.347423 0
-0.117242 -0.315728 0
-0.104943 -0.281906 0
-0.092368 -0.247237 0
-0.079903 -0.212774 0
-0.067831 -0.179300 0
-0.056336 -0.147321 0
-0.045511 -0.117093 0
-0.035371 -0.088657 0
-0.025869 -0.061879 0
-0.016909 -0.036478 0
-0.008349 -0.012040 0
0.000000 0.000000 0
0.000000 0.000000 0
-0.004954 -0.005538 0
-0.009818 -0.011091 0
-0.014530 -0.016679 0
-0.019045 -0.022338 0
-0.023336 -0.028112 0
-0.027397 -0.034051 0
-0.031234 -0.040211 0
-0.034866 -0.046650 0
-0.038325 -0.053431 0
-0.041647 -0.060622 0
-0.044875 -0.068294 0
-0.048055 -0.076525 0
-0.051240 -0.085399 0
-0.054481 -0.095006 0
-0.057834 -0.105446 0
-0.061358 -0.116822 0
-0.065113 -0.129248 0
-0.069159 -0.142837 0
-0.073558 -0.157707 0
-0.078372 -0.173967 0
-0.083654 -0.191711 0
-0.089451 -0.211001 0
-0.095791 -0.231850 0
-0.102676 -0.254191 0
-0.110070 -0.277848 0
-0.117880 -0.302495 0
-0.125949 -0.327620 0
-0.134036 -0.352493 0
-0.141811 -0.376159 0
-0.148864 -0.397458 0
-0.154725 -0.415092 0
-0.158906 -0.427744 0
-0.160959 -0.434231 0
-0.160542 -0.433680 0
-0.157477 -0.425673 0
-0.151791 -0.410337 0
-0.143711 -0.388336 0
-0.133634 -0.360780 0
-0.122069 -0.329060 0
-0.109558 -0.294661 0
-0.096617 -0.258983 0
-0.083683 -0.223218 0
-0.071089 -0.188276 0
-0.059056 -0.154770 0
-0.047704 -0.123030 0
-0.037065 -0.093143 0
-0.027097 -0.064996 0
-0.017705 -0.038307 0
-0.008739 -0.012643 0
0.000000 0.000000 0
0.000000 0.000000 0
-0.004932 -0.004823 0
-0.009771 -0.009689 0
-0.014448 -0.014630 0
-0.018918 -0.019688 0
-0.023152 -0.024909 0
-0.027144 -0.030345 0
-0.030902 -0.036047 0
-0.034447 -0.042070 0
-0.037809 -0.048470 0
-0.041024 -0.055308 0
-0.044137 -0.062648 0
-0.047192 -0.070561 0
-0.050239 -0.079124 0
-0.053331 -0.088420 0
-0.056523 -0.098543 0
-0.059871 -0.109594 0
-0.063437 -0.121682 0
-0.067284 -0.134923 0
-0.071475 -0.149439 0
-0.076075 -0.165348 0
-0.081148 -0.182760 0
-0.086748 -0.201761 0
-0.092917 -0.222397 0
-0.099676 -0.244646 0
-0.107008 -0.268386 0
-0.114848 -0.293355 0
-0.123064 -0.319111 0
-0.131443 -0.344992 0
-0.139677 -0.370093 0
-0.147366 -0.393276 0
-0.154031 -0.413217 0
-0.159154 -0.428514 0
-0.162230 -0.437838 0
-0.162844 -0.440119 0
-0.160733 -0.434716 0
-0.155841 -0.421545 0
-0.148334 -0.401109 0
-0.138575 -0.374430 0
-0.127072 -0.342894 0
-0.114395 -0.308055 0
-0.101108 -0.271434 0
-0.087703 -0.234368 0
-0.074565 -0.197909 0
-0.061962 -0.162790 0
-0.050046 -0.129433 0
-0.038870 -0.097985 0
-0.028403 -0.068361 0
-0.018549 -0.040282 0
-0.009153 -0.013293 0
0.000000 0.000000 0
0.000000 0.000000 0
-0.004910 -0.004013 0
-0.009724 -0.008112 0
-0.014371 -0.012343 0
-0.018802 -0.016757 0
-0.022989 -0.021404 0
-0.026924 -0.026330 0
-0.030617 -0.031582 0
-0.034086 -0.037206 0
-0.037364 -0.043251 0
-0.040485 -0.049766 0
-0.043492 -0.056807 0
-0.046429 -0.064435 0
-0.049346 -0.072718 0
-0.052292 -0.081732 0
-0.055322 -0.091563 0
-0.058493 -0.102309 0
-0.061865 -0.114073 0
-0.065503 -0.126974 0
-0.069475 -0.141134 0
-0.073847 -0.156679 0
-0.078690 -0.173734 0
-0.084068 -0.192407 0
-0.090036 -0.212772 0
-0.096630 -0.234851 0
-0.103854 -0.258574 0
-0.111671 -0.283745 0
-0.119976 -0.309994 0
-0.128586 -0.336734 0
-0.137220 -0.363126 0
-0.145493 -0.388069 0
-0.152929 -0.410237 0
-0.158985 -0.428165 0
-0.163110 -0.440393 0
-0.164813 -0.445658 0
-0.163743 -0.443092 0
-0.159753 -0.432375 0
-0.152932 -0.413813 0
-0.143597 -0.388303 0
-0.132242 -0.357195 0
-0.119460 -0.322090 0
-0.105856 -0.284624 0
-0.091982 -0.246280 0
-0.078284 -0.208267 0
-0.065079 -0.171455 0
-0.052561 -0.136374 0
-0.040808 -0.103245 0
-0.029803 -0.072021 0
-0.019452 -0.042431 0
-0.009594 -0.014002 0
0.000000 0.000000 0
0.000000 0.000000 0
-0.004893 -0.003102 0
-0.009691 -0.006349 0
-0.014318 -0.009808 0
-0.018721 -0.013537 0
-0.022874 -0.017586 0
-0.026766 -0.021997 0
-0.030406 -0.026808 0
-0.033815 -0.032054 0
-0.037020 -0.037769 0
-0.040057 -0.043992 0
-0.042967 -0.050767 0
-0.045793 -0.058142 0
-0.048582 -0.066177 0
-0.051383 -0.074938 0
-0.054250 -0.084504 0
-0.057240 -0.094965 0
-0.060413 -0.106423 0
-0.063835 -0.118992 0
-0.067574 -0.132798 0
-0.071703 -0.147973 0
-0.076297 -0.164652 0
-0.081429 -0.182962 0
-0.087165 -0.203006 0
-0.093556 -0.224843 0
-0.100629 -0.248455 0
-0.108369 -0.273710 0
-0.116703 -0.300314 0
-0.125479 -0.327758 0
-0.134447 -0.355282 0
-0.143247 -0.381842 0
-0.151409 -0.406129 0
-0.158380 -0.426640 0
-0.163565 -0.441806 0
-0.166406 -0.450184 0
-0.166459 -0.450671 0
-0.163479 -0.442694 0
-0.157465 -0.426331 0
-0.148672 -0.402312 0
-0.137566 -0.371913 0
-0.124749 -0.336756 0
-0.110871 -0.298575 0
-0.096540 -0.259003 0
-0.082268 -0.219415 0
-0.068432 -0.180835 0
-0.055272 -0.143921 0
-0.042898 -0.108982 0
-0.031312 -0.076022 0
-0.020424 -0.044785 0
-0.010068 -0.014780 0
0.000000 0.000000 0
0.000000 0.000000 0
-0.004889 -0.002077 0
-0.009684 -0.004380 0
-0.014305 -0.006999 0
-0.018698 -0.009999 0
-0.022831 -0.013430 0
-0.026697 -0.017323 0
-0.030300 -0.021704 0
-0.033660 -0.026591 0
-0.036805 -0.032005 0
-0.039768 -0.037968 0
-0.042589 -0.044510 0
-0.045308 -0.051668 0
-0.047971 -0.059488 0
-0.050628 -0.068027 0
-0.053330 -0.077356 0
-0.056133 -0.087557 0
-0.059099 -0.098728 0
-0.062294 -0.110980 0
-0.065789 -0.124438 0
-0.069659 -0.139240 0
-0.073985 -0.155529 0
-0.078847 -0.173449 0
-0.084321 -0.193127 0
-0.090474 -0.214657 0
-0.097351 -0.238071 0
-0.104962 -0.263297 0
-0.113265 -0.290117 0
-0.122140 -0.318110 0
-0.131372 -0.346597 0
-0.140631 -0.374611 0
-0.149467 -0.400883 0
-0.157319 -0.423896 0
-0.163564 -0.441999 0
-0.167579 -0.453583 0
-0.168830 -0.457317 0
-0.166967 -0.452360 0
-0.161887 -0.438529 0
-0.153764 -0.416348 0
-0.143020 -0.386976 0
-0.130257 -0.352021 0
-0.116158 -0.313297 0
-0.101393 -0.272579 0
-0.086540 -0.231415 0
-0.072044 -0.191003 0
-0.058200 -0.152146 0
-0.045159 -0.115260 0