# vtk DataFile Version 2.0
generated by CFD-lab course output (written by Tobias Neckel) 
ASCII

DATASET STRUCTURED_GRID
DIMENSIONS  51 51 1 
POINTS 2601 float

0.000000 0.000000 0
0.020000 0.000000 0
0.040000 0.000000 0
0.060000 0.000000 0
0.080000 0.000000 0
0.100000 0.000000 0
0.120000 0.000000 0
0.140000 0.000000 0
0.160000 0.000000 0
0.180000 0.000000 0
0.200000 0.000000 0
0.220000 0.000000 0
0.240000 0.000000 0
0.260000 0.000000 0
0.280000 0.000000 0
0.300000 0.000000 0
0.320000 0.000000 0
0.340000 0.000000 0
0.360000 0.000000 0
0.380000 0.000000 0
0.400000 0.000000 0
0.420000 0.000000 0
0.440000 0.000000 0
0.460000 0.000000 0
0.480000 0.000000 0
0.500000 0.000000 0
0.520000 0.000000 0
0.540000 0.000000 0
0.560000 0.000000 0
0.580000 0.000000 0
0.600000 0.000000 0
0.620000 0.000000 0
0.640000 0.000000 0
0.660000 0.000000 0
0.680000 0.000000 0
0.700000 0.000000 0
0.720000 0.000000 0
0.740000 0.000000 0
0.760000 0.000000 0
0.780000 0.000000 0
0.800000 0.000000 0
0.820000 0.000000 0
0.840000 0.000000 0
0.860000 0.000000 0
0.880000 0.000000 0
0.900000 0.000000 0
0.920000 0.000000 0
0.940000 0.000000 0
0.960000 0.000000 0
0.980000 0.000000 0
1.000000 0.000000 0
0.000000 0.020000 0
0.020000 0.020000 0
0.040000 0.020000 0
0.060000 0.020000 0
0.080000 0.020000 0
0.100000 0.020000 0
0.120000 0.020000 0
0.140000 0.020000 0
0.160000 0.020000 0
0.180000 0.020000 0
0.200000 0.020000 0
0.220000 0.020000 0
0.240000 0.020000 0
0.260000 0.020000 0
0.280000 0.020000 0
0.300000 0.020000 0
0.320000 0.020000 0
0.340000 0.020000 0
0.360000 0.020000 0
0.380000 0.020000 0
0.400000 0.020000 0
0.420000 0.020000 0
0.440000 0.020000 0
0.460000 0.020000 0
0.480000 0.020000 0
0.500000 0.020000 0
0.520000 0.020000 0
0.540000 0.020000 0
0.560000 0.020000 0
0.580000 0.020000 0
0.600000 0.020000 0
0.620000 0.020000 0
0.640000 0.020000 0
0.660000 0.020000 0
0.680000 0.020000 0
0.700000 0.020000 0
0.720000 0.020000 0
0.740000 0.020000 0
0.760000 0.020000 0
0.780000 0.020000 0
0.800000 0.020000 0
0.820000 0.020000 0
0.840000 0.020000 0
0.860000 0.020000 0
0.880000 0.020000 0
0.900000 0.020000 0
0.920000 0.020000 0
0.940000 0.020000 0
0.960000 0.020000 0
0.980000 0.020000 0
1.000000 0.020000 0
0.000000 0.040000 0
0.020000 0.040000 0
0.040000 0.040000 0
0.060000 0.040000 0
0.080000 0.040000 0
0.100000 0.040000 0
0.120000 0.040000 0
0.140000 0.040000 0
0.160000 0.040000 0
0.180000 0.040000 0
0.200000 0.040000 0
0.220000 0.040000 0
0.240000 0.040000 0
0.260000 0.040000 0
0.280000 0.040000 0
0.300000 0.040000 0
0.320000 0.040000 0
0.340000 0.040000 0
0.360000 0.040000 0
0.380000 0.040000 0
0.400000 0.040000 0
0.420000 0.040000 0
0.440000 0.040000 0
0.460000 0.040000 0
0.480000 0.040000 0
0.500000 0.040000 0
0.520000 0.040000 0
0.540000 0.040000 0
0.560000 0.040000 0
0.580000 0.040000 0
0.600000 0.040000 0
0.620000 0.040000 0
0.640000 0.040000 0
0.660000 0.040000 0
0.680000 0.040000 0
0.700000 0.040000 0
0.720000 0.040000 0
0.740000 0.040000 0
0.760000 0.040000 0
0.780000 0.040000 0
0.800000 0.040000 0
0.820000 0.040000 0
0.840000 0.040000 0
0.860000 0.040000 0
0.880000 0.040000 0
0.900000 0.040000 0
0.920000 0.040000 0
0.940000 0.040000 0
0.960000 0.040000 0
0.980000 0.040000 0
1.000000 0.040000 0
0.000000 0.060000 0
0.020000 0.060000 0
0.040000 0.060000 0
0.060000 0.060000 0
0.080000 0.060000 0
0.100000 0.060000 0
0.120000 0.060000 0
0.140000 0.060000 0
0.160000 0.060000 0
0.180000 0.060000 0
0.200000 0.060000 0
0.220000 0.060000 0
0.240000 0.060000 0
0.260000 0.060000 0
0.280000 0.060000 0
0.300000 0.060000 0
0.320000 0.060000 0
0.340000 0.060000 0
0.360000 0.060000 0
0.380000 0.060000 0
0.400000 0.060000 0
0.420000 0.060000 0
0.440000 0.060000 0
0.460000 0.060000 0
0.480000 0.060000 0
0.500000 0.060000 0
0.520000 0.060000 0
0.540000 0.060000 0
0.560000 0.060000 0
0.580000 0.060000 0
0.600000 0.060000 0
0.620000 0.060000 0
0.640000 0.060000 0
0.660000 0.060000 0
0.680000 0.060000 0
0.700000 0.060000 0
0.720000 0.060000 0
0.740000 0.060000 0
0.760000 0.060000 0
0.780000 0.060000 0
0.800000 0.060000 0
0.820000 0.060000 0
0.840000 0.060000 0
0.860000 0.060000 0
0.880000 0.060000 0
0.900000 0.060000 0
0.920000 0.060000 0
0.940000 0.060000 0
0.960000 0.060000 0
0.980000 0.060000 0
1.000000 0.060000 0
0.000000 0.080000 0
0.020000 0.080000 0
0.040000 0.080000 0
0.060000 0.080000 0
0.080000 0.080000 0
0.100000 0.080000 0
0.120000 0.080000 0
0.140000 0.080000 0
0.160000 0.080000 0
0.180000 0.080000 0
0.200000 0.080000 0
0.220000 0.080000 0
0.240000 0.080000 0
0.260000 0.080000 0
0.280000 0.080000 0
0.300000 0.080000 0
0.320000 0.080000 0
0.340000 0.080000 0
0.360000 0.080000 0
0.380000 0.080000 0
0.400000 0.080000 0
0.420000 0.080000 0
0.440000 0.080000 0
0.460000 0.080000 0
0.480000 0.080000 0
0.500000 0.080000 0
0.520000 0.080000 0
0.540000 0.080000 0
0.560000 0.080000 0
0.580000 0.080000 0
0.600000 0.080000 0
0.620000 0.080000 0
0.640000 0.080000 0
0.660000 0.080000 0
0.680000 0.080000 0
0.700000 0.080000 0
0.720000 0.080000 0
0.740000 0.080000 0
0.760000 0.080000 0
0.780000 0.080000 0
0.800000 0.080000 0
0.820000 0.080000 0
0.840000 0.080000 0
0.860000 0.080000 0
0.880000 0.080000 0
0.900000 0.080000 0
0.920000 0.080000 0
0.940000 0.080000 0
0.960000 0.080000 0
0.980000 0.080000 0
1.000000 0.080000 0
0.000000 0.100000 0
0.020000 0.100000 0
0.040000 0.100000 0
0.060000 0.100000 0
0.080000 0.100000 0
0.100000 0.100000 0
0.120000 0.100000 0
0.140000 0.100000 0
0.160000 0.100000 0
0.180000 0.100000 0
0.200000 0.100000 0
0.220000 0.100000 0
0.240000 0.100000 0
0.260000 0.100000 0
0.280000 0.100000 0
0.300000 0.100000 0
0.320000 0.100000 0
0.340000 0.100000 0
0.360000 0.100000 0
0.380000 0.100000 0
0.400000 0.100000 0
0.420000 0.100000 0
0.440000 0.100000 0
0.460000 0.100000 0
0.480000 0.100000 0
0.500000 0.100000 0
0.520000 0.100000 0
0.540000 0.100000 0
0.560000 0.100000 0
0.580000 0.100000 0
0.600000 0.100000 0
0.620000 0.100000 0
0.640000 0.100000 0
0.660000 0.100000 0
0.680000 0.100000 0
0.700000 0.100000 0
0.720000 0.100000 0
0.740000 0.100000 0
0.760000 0.100000 0
0.780000 0.100000 0
0.800000 0.100000 0
0.820000 0.100000 0
0.840000 0.100000 0
0.860000 0.100000 0
0.880000 0.100000 0
0.900000 0.100000 0
0.920000 0.100000 0
0.940000 0.100000 0
0.960000 0.100000 0
0.980000 0.100000 0
1.000000 0.100000 0
0.000000 0.120000 0
0.020000 0.120000 0
0.040000 0.120000 0
0.060000 0.120000 0
0.080000 0.120000 0
0.100000 0.120000 0
0.120000 0.120000 0
0.140000 0.120000 0
0.160000 0.120000 0
0.180000 0.120000 0
0.200000 0.120000 0
0.220000 0.120000 0
0.240000 0.120000 0
0.260000 0.120000 0
0.280000 0.120000 0
0.300000 0.120000 0
0.320000 0.120000 0
0.340000 0.120000 0
0.360000 0.120000 0
0.380000 0.120000 0
0.400000 0.120000 0
0.420000 0.120000 0
0.440000 0.120000 0
0.460000 0.120000 0
0.480000 0.120000 0
0.500000 0.120000 0
0.520000 0.120000 0
0.540000 0.120000 0
0.560000 0.120000 0
0.580000 0.120000 0
0.600000 0.120000 0
0.620000 0.120000 0
0.640000 0.120000 0
0.660000 0.120000 0
0.680000 0.120000 0
0.700000 0.120000 0
0.720000 0.120000 0
0.740000 0.120000 0
0.760000 0.120000 0
0.780000 0.120000 0
0.800000 0.120000 0
0.820000 0.120000 0
0.840000 0.120000 0
0.860000 0.120000 0
0.880000 0.120000 0
0.900000 0.120000 0
0.920000 0.120000 0
0.940000 0.120000 0
0.960000 0.120000 0
0.980000 0.120000 0
1.000000 0.120000 0
0.000000 0.140000 0
0.020000 0.140000 0
0.040000 0.140000 0
0.060000 0.140000 0
0.080000 0.140000 0
0.100000 0.140000 0
0.120000 0.140000 0
0.140000 0.140000 0
0.160000 0.140000 0
0.180000 0.140000 0
0.200000 0.140000 0
0.220000 0.140000 0
0.240000 0.140000 0
0.260000 0.140000 0
0.280000 0.140000 0
0.300000 0.140000 0
0.320000 0.140000 0
0.340000 0.140000 0
0.360000 0.140000 0
0.380000 0.140000 0
0.400000 0.140000 0
0.420000 0.140000 0
0.440000 0.140000 0
0.460000 0.140000 0
0.480000 0.140000 0
0.500000 0.140000 0
0.520000 0.140000 0
0.540000 0.140000 0
0.560000 0.140000 0
0.580000 0.140000 0
0.600000 0.140000 0
0.620000 0.140000 0
0.640000 0.140000 0
0.660000 0.140000 0
0.680000 0.140000 0
0.700000 0.140000 0
0.720000 0.140000 0
0.740000 0.140000 0
0.760000 0.140000 0
0.780000 0.140000 0
0.800000 0.140000 0
0.820000 0.140000 0
0.840000 0.140000 0
0.860000 0.140000 0
0.880000 0.140000 0
0.900000 0.140000 0
0.920000 0.140000 0
0.940000 0.140000 0
0.960000 0.140000 0
0.980000 0.140000 0
1.000000 0.140000 0
0.000000 0.160000 0
0.020000 0.160000 0
0.040000 0.160000 0
0.060000 0.160000 0
0.080000 0.160000 0
0.100000 0.160000 0
0.120000 0.160000 0
0.140000 0.160000 0
0.160000 0.160000 0
0.180000 0.160000 0
0.200000 0.160000 0
0.220000 0.160000 0
0.240000 0.160000 0
0.260000 0.160000 0
0.280000 0.160000 0
0.300000 0.160000 0
0.320000 0.160000 0
0.340000 0.160000 0
0.360000 0.160000 0
0.380000 0.160000 0
0.400000 0.160000 0
0.420000 0.160000 0
0.440000 0.160000 0
0.460000 0.160000 0
0.480000 0.160000 0
0.500000 0.160000 0
0.520000 0.160000 0
0.540000 0.160000 0
0.560000 0.160000 0
0.580000 0.160000 0
0.600000 0.160000 0
0.620000 0.160000 0
0.640000 0.160000 0
0.660000 0.160000 0
0.680000 0.160000 0
0.700000 0.160000 0
0.720000 0.160000 0
0.740000 0.160000 0
0.760000 0.160000 0
0.780000 0.160000 0
0.800000 0.160000 0
0.820000 0.160000 0
0.840000 0.160000 0
0.860000 0.160000 0
0.880000 0.160000 0
0.900000 0.160000 0
0.920000 0.160000 0
0.940000 0.160000 0
0.960000 0.160000 0
0.980000 0.160000 0
1.000000 0.160000 0
0.000000 0.180000 0
0.020000 0.180000 0
0.040000 0.180000 0
0.060000 0.180000 0
0.080000 0.180000 0
0.100000 0.180000 0
0.120000 0.180000 0
0.140000 0.180000 0
0.160000 0.180000 0
0.180000 0.180000 0
0.200000 0.180000 0
0.220000 0.180000 0
0.240000 0.180000 0
0.260000 0.180000 0
0.280000 0.180000 0
0.300000 0.180000 0
0.320000 0.180000 0
0.340000 0.180000 0
0.360000 0.180000 0
0.380000 0.180000 0
0.400000 0.180000 0
0.420000 0.180000 0
0.440000 0.180000 0
0.460000 0.180000 0
0.480000 0.180000 0
0.500000 0.180000 0
0.520000 0.180000 0
0.540000 0.180000 0
0.560000 0.180000 0
0.580000 0.180000 0
0.600000 0.180000 0
0.620000 0.180000 0
[...]
POINT_DATA 2601 

VECTORS velocity float
0.000000 0.000000 0
0.000000 0.000000 0
0.000000 0.000000 0
0.000000 0.000000 0
0.000000 0.000000 0
0.000000 0.000000 0
0.000000 0.000000 0
0.000000 0.000000 0
0.000000 0.000000 0
0.000000 0.000000 0
0.000000 0.000000 0
0.000000 0.000000 0
0.000000 0.000000 0
0.000000 0.000000 0
0.000000 0.000000 0
0.000000 0.000000 0
0.000000 0.000000 0
0.000000 0.000000 0
0.000000 0.000000 0
-0.000000 0.000000 0
-0.000000 0.000000 0
-0.000000 0.000000 0
-0.000000 0.000000 0
-0.000000 0.000000 0
-0.000000 0.000000 0
-0.000000 0.000000 0
-0.000000 0.000000 0
-0.000000 0.000000 0
-0.000000 0.000000 0
-0.000000 0.000000 0
-0.000000 0.000000 0
-0.000000 0.000000 0
0.000000 0.000000 0
0.000000 0.000000 0
0.000000 0.000000 0
0.000000 0.000000 0
0.000000 0.000000 0
0.000000 0.000000 0
0.000000 0.000000 0
0.000000 0.000000 0
0.000000 0.000000 0
0.000000 0.000000 0
0.000000 0.000000 0
0.000000 0.000000 0
0.000000 0.000000 0
0.000000 0.000000 0
0.000000 0.000000 0
0.000000 0.000000 0
0.000000 0.000000 0
0.000000 0.000000 0
0.000000 0.000000 0
0.000000 0.000000 0
-0.000884 -0.001597 0
-0.001797 -0.003260 0
-0.002760 -0.005048 0
-0.003792 -0.007014 0
-0.004911 -0.009213 0
-0.006134 -0.011702 0
-0.007480 -0.014543 0
-0.008968 -0.017805 0
-0.010623 -0.021565 0
-0.012467 -0.025911 0
-0.014531 -0.030942 0
-0.016843 -0.036764 0
-0.019437 -0.043494 0
-0.022345 -0.051255 0
-0.025599 -0.060169 0
-0.029227 -0.070349 0
-0.033248 -0.081888 0
-0.037668 -0.094838 0
-0.042476 -0.109192 0
-0.047632 -0.124859 0
-0.053065 -0.141630 0
-0.058663 -0.159163 0
-0.064269 -0.176957 0
-0.069685 -0.194352 0
-0.074669 -0.210550 0
-0.078955 -0.224656 0
-0.082269 -0.235758 0
-0.084360 -0.243018 0
-0.085028 -0.245784 0
-0.084157 -0.243688 0
-0.081734 -0.236715 0
-0.077861 -0.225219 0
-0.072743 -0.209890 0
-0.066667 -0.191668 0
-0.059965 -0.171621 0
-0.052974 -0.150817 0
-0.046007 -0.130214 0
-0.039320 -0.110583 0
-0.033103 -0.092470 0
-0.027475 -0.076200 0
-0.022492 -0.061902 0
-0.018159 -0.049554 0
-0.014444 -0.039030 0
-0.011289 -0.030137 0
-0.008625 -0.022651 0
-0.006377 -0.016336 0
-0.004467 -0.010956 0
-0.002820 -0.006273 0
-0.001359 -0.002038 0
0.000000 0.000000 0
0.000000 0.000000 0
-0.001730 -0.003108 0
-0.003509 -0.006334 0
-0.005377 -0.009782 0
-0.007364 -0.013549 0
-0.009499 -0.017727 0
-0.011809 -0.022408 0
-0.014321 -0.027691 0
-0.017061 -0.033681 0
-0.020060 -0.040488 0
-0.023348 -0.048231 0
-0.026958 -0.057033 0
-0.030921 -0.067018 0
-0.035268 -0.078310 0
-0.040027 -0.091019 0
-0.045218 -0.105235 0
-0.050853 -0.121014 0
-0.056928 -0.138364 0
-0.063421 -0.157228 0
-0.070284 -0.177465 0
-0.077443 -0.198836 0
-0.084789 -0.220992 0
-0.092175 -0.243459 0
-0.099417 -0.265646 0
-0.106294 -0.286848 0
-0.112552 -0.306268 0
-0.117914 -0.323053 0
-0.122098 -0.336347 0
-0.124835 -0.345350 0
-0.125899 -0.349397 0
-0.125129 -0.348034 0
-0.122459 -0.341086 0
-0.117933 -0.328698 0
-0.111708 -0.311346 0
-0.104045 -0.289803 0
-0.095284 -0.265071 0
-0.085812 -0.238278 0
-0.076021 -0.210573 0
-0.066277 -0.183017 0
-0.056889 -0.156505 0
-0.048095 -0.131715 0
-0.040052 -0.109095 0
-0.032844 -0.088869 0
-0.026489 -0.071078 0
-0.020956 -0.055614 0
-0.016179 -0.042268 0
-0.012066 -0.030764 0
-0.008512 -0.020779 0
-0.005404 -0.011956 0
-0.002614 -0.003894 0
0.000000 0.000000 0
0.000000 0.000000 0
-0.002502 -0.004453 0
-0.005063 -0.009053 0
-0.007729 -0.013932 0
-0.010537 -0.019208 0
-0.013515 -0.024986 0
-0.016689 -0.031370 0
-0.020082 -0.038463 0
-0.023714 -0.046365 0
-0.027608 -0.055176 0
-0.031782 -0.064995 0
-0.036255 -0.075912 0
-0.041044 -0.088009 0
-0.046161 -0.101354 0
-0.051614 -0.115991 0
-0.057405 -0.131940 0
-0.063526 -0.149182 0
-0.069961 -0.167660 0
-0.076679 -0.187267 0
-0.083636 -0.207841 0
-0.090770 -0.229159 0
-0.097997 -0.250927 0
-0.105208 -0.272773 0
-0.112263 -0.294243 0
-0.118990 -0.314791 0
-0.125182 -0.333781 0
-0.130601 -0.350504 0
-0.134988 -0.364207 0
-0.138080 -0.374138 0
-0.139635 -0.379616 0
-0.139457 -0.380105 0
-0.137430 -0.375288 0
-0.133532 -0.365123 0
-0.127851 -0.349868 0
-0.120577 -0.330068 0
-0.111987 -0.306509 0
-0.102419 -0.280144 0
-0.092237 -0.252004 0
-0.081803 -0.223112 0
-0.071451 -0.194409 0
-0.061460 -0.166690 0
-0.052049 -0.140571 0
-0.043367 -0.116472 0
-0.035497 -0.094624 0
-0.028461 -0.075086 0
-0.022235 -0.057773 0
-0.016753 -0.042486 0
-0.011919 -0.028934 0
-0.007616 -0.016747 0
-0.003701 -0.005472 0
0.000000 0.000000 0
0.000000 0.000000 0
-0.003172 -0.005570 0
-0.006401 -0.011293 0
-0.009731 -0.017306 0
-0.013193 -0.023727 0
-0.016808 -0.030657 0
-0.020594 -0.038191 0
-0.024562 -0.046412 0
-0.028721 -0.055399 0
-0.033079 -0.065222 0
-0.037643 -0.075944 0
-0.042417 -0.087617 0
-0.047406 -0.100281 0
-0.052615 -0.113965 0
-0.058044 -0.128681 0
-0.063695 -0.144425 0
-0.069567 -0.161176 0
-0.075657 -0.178891 0
-0.081956 -0.197506 0
-0.088448 -0.216923 0
-0.095106 -0.237009 0
-0.101884 -0.257576 0
-0.108712 -0.278367 0
-0.115488 -0.299038 0
-0.122069 -0.319140 0
-0.128271 -0.338114 0
-0.133864 -0.355292 0
-0.138589 -0.369921 0
-0.142164 -0.381216 0
-0.144321 -0.388422 0
-0.144829 -0.390905 0
-0.143525 -0.388231 0
-0.140347 -0.380235 0
-0.135339 -0.367057 0
-0.128654 -0.349136 0
-0.120539 -0.327164 0
-0.111304 -0.302011 0
-0.101294 -0.274638 0
-0.090856 -0.246013 0
-0.080314 -0.217042 0
-0.069951 -0.188516 0
-0.059998 -0.161081 0
-0.050627 -0.135220 0
-0.041952 -0.111251 0
-0.034031 -0.089332 0
-0.026872 -0.069479 0
-0.020440 -0.051576 0
-0.014662 -0.035395 0
-0.009429 -0.020601 0
-0.004602 -0.006752 0
0.000000 0.000000 0
0.000000 0.000000 0
-0.003726 -0.006426 0
-0.007496 -0.012989 0
-0.011343 -0.019816 0
-0.015288 -0.027009 0
-0.019342 -0.034656 0
-0.023510 -0.042831 0
-0.027791 -0.051597 0
-0.032186 -0.061009 0
-0.036692 -0.071114 0
-0.041312 -0.081950 0
-0.046046 -0.093551 0
-0.050899 -0.105945 0
-0.055879 -0.119154 0
-0.060999 -0.133198 0
-0.066271 -0.148094 0
-0.071715 -0.163853 0
-0.077347 -0.180483 0
-0.083185 -0.197977 0
-0.089238 -0.216309 0
-0.095507 -0.235418 0
-0.101969 -0.255191 0
-0.108580 -0.275441 0
-0.115254 -0.295883 0
-0.121864 -0.316117 0
-0.128235 -0.335612 0
-0.134139 -0.353706 0
-0.139308 -0.369629 0
-0.143446 -0.382546 0
-0.146256 -0.391627 0
-0.147470 -0.396135 0
-0.146886 -0.395520 0
-0.144397 -0.389500 0
-0.140008 -0.378112 0
-0.133845 -0.361717 0
-0.126137 -0.340962 0
-0.117188 -0.316698 0
-0.107343 -0.289883 0
-0.096953 -0.261495 0
-0.086345 -0.232443 0
-0.075806 -0.203523 0
-0.065570 -0.175387 0
-0.055815 -0.148530 0
-0.046663 -0.123291 0
-0.038186 -0.099865 0
-0.030408 -0.078311 0
-0.023309 -0.058564 0
-0.016833 -0.040441 0
-0.010885 -0.023648 0
-0.005333 -0.007770 0
0.000000 0.000000 0
0.000000 0.000000 0
-0.004160 -0.007012 0
-0.008345 -0.014133 0
-0.012571 -0.021465 0
-0.016847 -0.029094 0
-0.021171 -0.037087 0
-0.025539 -0.045502 0
-0.029943 -0.054387 0
-0.034380 -0.063783 0
-0.038846 -0.073725 0
-0.043344 -0.084249 0
-0.047881 -0.095388 0
-0.052471 -0.107177 0
-0.057132 -0.119657 0
-0.061891 -0.132868 0
-0.066777 -0.146861 0
-0.071825 -0.161684 0
-0.077070 -0.177387 0
-0.082546 -0.194009 0
-0.088281 -0.211572 0
-0.094288 -0.230060 0
-0.100562 -0.249406 0
-0.107070 -0.269466 0
-0.113741 -0.289995 0
-0.120459 -0.310624 0
-0.127056 -0.330847 0
-0.133311 -0.350012 0
-0.138952 -0.367340 0
-0.143674 -0.381959 0
-0.147155 -0.392973 0
-0.149095 -0.399549 0
-0.149247 -0.401017 0
-0.147458 -0.396969 0
-0.143690 -0.387324 0
-0.138035 -0.372352 0
-0.130699 -0.352647 0
-0.121983 -0.329051 0
-0.112241 -0.302547 0
-0.101840 -0.274156 0
-0.091126 -0.244838 0
-0.080402 -0.215432 0
-0.069914 -0.186620 0
-0.059847 -0.158914 0
-0.050328 -0.132668 0
-0.041434 -0.108085 0
-0.033191 -0.085239 0
-0.025588 -0.064081 0
-0.018574 -0.044452 0
-0.012062 -0.026083 0
-0.005927 -0.008586 0
0.000000 0.000000 0
0.000000 0.000000 0
-0.004483 -0.007342 0
-0.008967 -0.014759 0
-0.013453 -0.022327 0
-0.017934 -0.030112 0
-0.022401 -0.038166 0
-0.026843 -0.046537 0
-0.031250 -0.055264 0
-0.035619 -0.064385 0
-0.039951 -0.073939 0
-0.044256 -0.083967 0
-0.048551 -0.094513 0
-0.052858 -0.105629 0
-0.057209 -0.117374 0
-0.061642 -0.129815 0
-0.066200 -0.143026 0
-0.070926 -0.157084 0
-0.075870 -0.172067 0
-0.081072 -0.188045 0
-0.086572 -0.205066 0
-0.092392 -0.223147 0
-0.098538 -0.242251 0
-0.104987 -0.262265 0
-0.111681 -0.282980 0
-0.118517 -0.304062 0
-0.125340 -0.325035 0
-0.131937 -0.345270 0
-0.138041 -0.363992 0
-0.143340 -0.380310 0
-0.147496 -0.393273 0
-0.150176 -0.401959 0
-0.151093 -0.405583 0
-0.150042 -0.403599 0
-0.146935 -0.395790 0
-0.141820 -0.382314 0
-0.134878 -0.363692 0
-0.126397 -0.340740 0
-0.116738 -0.314462 0
-0.106289 -0.285935 0
-0.095423 -0.256192 0
-0.084469 -0.226145 0
-0.073696 -0.196536 0
-0.063304 -0.167921 0
-0.053431 -0.140678 0
-0.044156 -0.115025 0
-0.035510 -0.091039 0
-0.027481 -0.068676 0
-0.020018 -0.047784 0
-0.013039 -0.028103 0
-0.006421 -0.009263 0
0.000000 0.000000 0
0.000000 0.000000 0
-0.004708 -0.007443 0
-0.009394 -0.014927 0
-0.014043 -0.022507 0
-0.018636 -0.030230 0
-0.023157 -0.038140 0
-0.027592 -0.046278 0
-0.031934 -0.054685 0
-0.036183 -0.063403 0
-0.040349 -0.072477 0
-0.044447 -0.081958 0
-0.048503 -0.091906 0
-0.052552 -0.102387 0
-0.056633 -0.113476 0
-0.060792 -0.125257 0
-0.065079 -0.137822 0
-0.069547 -0.151265 0
-0.074247 -0.165680 0
-0.079229 -0.181156 0
-0.084537 -0.197760 0
-0.090201 -0.215529 0
-0.096236 -0.234453 0
-0.102629 -0.254450 0
-0.109337 -0.275346 0
-0.116272 -0.296846 0
-0.123293 -0.318513 0
-0.130202 -0.339752 0
-0.136742 -0.359806 0
-0.142598 -0.377777 0
-0.147422 -0.392677 0
-0.150854 -0.403507 0
-0.152563 -0.409365 0
-0.152295 -0.409566 0
-0.149905 -0.403744 0
-0.145391 -0.391922 0
-0.138895 -0.374521 0
-0.130688 -0.352310 0
-0.121131 -0.326302 0
-0.110631 -0.297621 0
-0.099591 -0.267382 0
-0.088373 -0.236588 0
-0.077275 -0.206064 0
-0.066525 -0.176433 0
-0.056275 -0.148119 0
-0.046613 -0.121365 0
-0.037575 -0.096260 0
-0.029147 -0.072764 0
-0.021280 -0.050721 0
-0.013888 -0.029873 0
-0.006849 -0.009855 0
0.000000 0.000000 0
0.000000 0.000000 0
-0.004853 -0.007346 0
-0.009664 -0.014708 0
-0.014401 -0.022119 0
-0.019040 -0.029618 0
-0.023557 -0.037241 0
-0.027940 -0.045031 0
-0.032185 -0.053031 0
-0.036297 -0.061291 0
-0.040292 -0.069864 0
-0.044195 -0.078812 0
-0.048038 -0.088204 0
-0.051862 -0.098117 0
-0.055713 -0.108639 0
-0.059642 -0.119862 0
-0.063702 -0.131887 0
-0.067950 -0.144819 0
-0.072442 -0.158761 0
-0.077230 -0.173813 0
-0.082363 -0.190055 0
-0.087877 -0.207544 0
-0.093795 -0.226292 0
-0.100119 -0.246247 0
-0.106816 -0.267273 0
-0.113817 -0.289119 0
-0.120999 -0.311392 0
-0.128183 -0.333541 0
-0.135121 -0.354839 0
-0.141508 -0.374395 0
-0.146984 -0.391198 0
-0.151170 -0.404184 0
-0.153695 -0.412345 0
-0.154253 -0.414854 0
-0.152641 -0.411185 0
-0.148797 -0.401208 0
-0.142818 -0.385222 0
-0.134946 -0.363920 0
-0.125536 -0.338301 0
-0.115009 -0.309529 0
-0.103796 -0.278798 0
-0.092296 -0.247209 0
-0.080846 -0.215688 0
-0.069703 -0.184944 0
-0.059043 -0.155465 0
-0.048971 -0.127538 0
-0.039527 -0.101273 0
-0.030702 -0.076636 0
-0.022443 -0.053471 0
-0.014664 -0.031517 0
-0.007237 -0.010401 0
0.000000 0.000000 0
0.000000 0.000000 0
-0.004936 -0.007084 0
-0.009812 -0.014166 0
-0.014587 -0.021269 0
-0.019225 -0.028422 0
-0.023705 -0.035664 0
-0.028013 -0.043036 0
-0.032149 -0.050589 0
-0.036125 -0.058376 0
-0.039961 -0.066461 0
-0.043689 -0.074910 0
-0.047345 -0.083800 0
-0.050976 -0.093215 0
-0.054629 -0.103244 0
-0.058359 -0.113988 0
-0.062222 -0.125550 0
-0.066275 -0.138038 0
-0.070575 -0.151563 0
-0.075179 -0.166229 0
-0.080138 -0.182130 0
-0.085496 -0.199338 0
-0.091284 -0.217885 0
-0.097515 -0.237753 0
-0.104171 -0.258842 0
-0.111201 -0.280946 0
-0.118504 -0.303726 0
-0.125917 -0.326677 0
-0.133212 -0.349113 0
-0.140093 -0.370168 0
-0.146199 -0.388819 0
-0.151132 -0.403954 0
-0.154490 -0.414467 0
-0.155914 -0.419395 0
-0.155139 -0.418046 0
-0.152040 -0.410120 0
-0.146658 -0.395768 0
-0.139196 -0.375584 0
-0.129995 -0.350527 0
-0.119483 -0.321782 0
-0.108117 -0.290617 0
-0.096336 -0.258234 0
-0.084515 -0.225670 0
-0.072951 -0.193735 0
-0.061849 -0.163002 0
-0.051335 -0.133814 0
-0.041461 -0.106317 0
-0.032223 -0.080491 0
-0.023569 -0.056184 0
-0.015407 -0.033125 0
-0.007607 -0.010934 0
0.000000 0.000000 0
0.000000 0.000000 0
-0.004974 -0.006683 0
-0.009874 -0.013359 0
-0.014649 -0.020042 0
-0.019261 -0.026762 0
-0.023684 -0.033556 0
-0.027909 -0.040471 0
-0.031938 -0.047560 0
-0.035786 -0.054882 0
-0.039480 -0.062503 0
-0.043052 -0.070494 0
-0.046546 -0.078934 0
-0.050008 -0.087907 0
-0.053488 -0.097506 0
-0.057041 -0.107828 0
-0.060723 -0.118979 0
-0.064593 -0.131068 0
-0.068710 -0.144208 0
-0.073131 -0.158507 0
-0.077912 -0.174069 0
-0.083102 -0.190980 0
-0.088741 -0.209294 0
-0.094852 -0.229021 0
-0.101435 -0.250101 0
-0.108456 -0.272374 0
-0.115834 -0.295553 0
-0.123430 -0.319190 0
-0.131036 -0.342650 0
-0.138368 -0.365100 0
-0.145072 -0.385524 0
-0.150739 -0.402776 0
-0.154937 -0.415670 0
-0.157258 -0.423111 0
-0.157378 -0.424239 0
-0.155100 -0.418572 0
-0.150401 -0.406091 0
-0.143435 -0.387261 0
-0.134518 -0.362974 0
-0.124077 -0.334418 0
-0.112593 -0.302919 0
-0.100541 -0.269781 0
-0.088343 -0.236157 0
-0.076335 -0.202977 0
-0.064762 -0.170908 0
-0.053774 -0.140370 0
-0.043441 -0.111553 0
-0.033767 -0.084467 0
-0.024701 -0.058962 0
-0.016148 -0.034764 0
-0.007974 -0.011475 0
0.000000 0.000000 0
0.000000 0.000000 0
-0.004980 -0.006166 0
-0.009876 -0.012329 0
-0.014631 -0.018504 0
-0.019201 -0.024722 0
-0.023561 -0.031024 0
-0.027703 -0.037458 0
-0.031631 -0.044081 0
-0.035364 -0.050952 0
-0.038931 -0.058137 0
-0.042368 -0.065709 0
-0.045719 -0.073743 0
-0.049030 -0.082323 0
-0.052354 -0.091538 0
-0.055744 -0.101483 0
-0.059256 -0.112262 0
-0.062950 -0.123982 0
-0.066884 -0.136756 0
-0.071119 -0.150698 0
-0.075712 -0.165916 0
-0.080720 -0.182511 0
-0.086190 -0.200556 0
-0.092156 -0.220090 0
-0.098634 -0.241089 0
-0.105606 -0.263440 0
-0.113014 -0.286912 0
-0.120743 -0.311115 0
-0.128607 -0.335474 0
-0.136343 -0.359201 0
-0.143606 -0.381304 0
-0.149983 -0.400619 0
-0.155019 -0.415896 0
-0.158263 -0.425920 0
-0.159327 -0.429668 0
-0.157945 -0.426463 0
-0.154018 -0.416096 0
-0.147642 -0.398877 0
-0.139095 -0.375600 0
-0.128796 -0.347429 0
-0.117241 -0.315734 0
-0.104943 -0.281913 0
-0.092368 -0.247243 0
-0.079902 -0.212779 0
-0.067831 -0.179304 0
-0.056336 -0.147325 0
-0.045511 -0.117096 0
-0.035371 -0.088660 0
-0.025869 -0.061881 0
-0.016909 -0.036479 0
-0.008349 -0.012040 0
0.000000 0.000000 0
0.000000 0.000000 0
-0.004967 -0.005546 0
-0.009844 -0.011105 0
-0.014567 -0.016698 0
-0.019089 -0.022361 0
-0.023387 -0.028137 0
-0.027451 -0.034077 0
-0.031288 -0.040235 0
-0.034920 -0.046672 0
-0.038376 -0.053451 0
-0.041694 -0.060638 0
-0.044916 -0.068306 0
-0.048092 -0.076533 0
-0.051271 -0.085403 0
-0.054506 -0.095007 0
-0.057854 -0.105443 0
-0.061374 -0.116817 0
-0.065123 -0.129241 0
-0.069166 -0.142829 0
-0.073562 -0.157698 0
-0.078373 -0.173957 0
-0.083653 -0.191701 0
-0.089448 -0.210991 0
-0.095786 -0.231840 0
-0.102671 -0.254182 0
-0.110064 -0.277840 0
-0.117874 -0.302488 0
-0.125943 -0.327614 0
-0.134029 -0.352489 0
-0.141805 -0.376156 0
-0.148858 -0.397457 0
-0.154720 -0.415092 0
-0.158902 -0.427745 0
-0.160955 -0.434234 0
-0.160539 -0.433684 0
-0.157475 -0.425678 0
-0.151789 -0.410343 0
-0.143709 -0.388342 0
-0.133633 -0.360786 0
-0.122068 -0.329066 0
-0.109557 -0.294667 0
-0.096617 -0.258988 0
-0.083683 -0.223222 0
-0.071089 -0.188280 0
-0.059056 -0.154774 0
-0.047704 -0.123033 0
-0.037064 -0.093145 0
-0.027097 -0.064998 0
-0.017705 -0.038308 0
-0.008739 -0.012643 0
0.000000 0.000000 0
0.000000 0.000000 0
-0.004945 -0.004830 0
-0.009796 -0.009702 0
-0.014484 -0.014648 0
-0.018961 -0.019709 0
-0.023201 -0.024933 0
-0.027196 -0.030369 0
-0.030955 -0.036071 0
-0.034499 -0.042092 0
-0.037858 -0.048489 0
-0.041070 -0.055323 0
-0.044177 -0.062660 0
-0.047227 -0.070569 0
-0.050269 -0.079128 0
-0.053356 -0.088421 0
-0.056542 -0.098541 0
-0.059886 -0.109590 0
-0.063448 -0.121676 0
-0.067291 -0.134916 0
-0.071478 -0.149431 0
-0.076076 -0.165339 0
-0.081147 -0.182750 0
-0.086745 -0.201751 0
-0.092913 -0.222388 0
-0.099671 -0.244637 0
-0.107002 -0.268378 0
-0.114842 -0.293348 0
-0.123058 -0.319106 0
-0.131437 -0.344988 0
-0.139671 -0.370090 0
-0.147360 -0.393274 0
-0.154026 -0.413217 0
-0.159149 -0.428515 0
-0.162226 -0.437841 0
-0.162841 -0.440122 0
-0.160731 -0.434720 0
-0.155839 -0.421550 0
-0.148332 -0.401115 0
-0.138574 -0.374436 0
-0.127071 -0.342900 0
-0.114395 -0.308060 0
-0.101108 -0.271439 0
-0.087702 -0.234373 0
-0.074565 -0.197913 0
-0.061962 -0.162794 0
-0.050046 -0.129436 0
-0.038870 -0.097988 0
-0.028403 -0.068363 0
-0.018549 -0.040283 0
-0.009153 -0.013294 0
0.000000 0.000000 0
0.000000 0.000000 0
-0.004922 -0.004019 0
-0.009748 -0.008124 0
-0.014405 -0.012360 0
-0.018844 -0.016777 0
-0.023036 -0.021426 0
-0.026974 -0.026352 0
-0.030668 -0.031604 0
-0.034136 -0.037227 0
-0.037411 -0.043269 0
-0.040529 -0.049781 0
-0.043531 -0.056819 0
-0.046463 -0.064443 0
-0.049374 -0.072723 0
-0.052315 -0.081734 0
-0.055340 -0.091563 0
-0.058507 -0.102305 0
-0.061875 -0.114068 0
-0.065510 -0.126967 0
-0.069478 -0.141126 0
-0.073848 -0.156671 0
-0.078689 -0.173726 0
-0.084066 -0.192398 0
-0.090032 -0.212764 0
-0.096625 -0.234843 0
-0.103849 -0.258567 0
-0.111665 -0.283738 0
-0.119970 -0.309989 0
-0.128580 -0.336730 0
-0.137214 -0.363122 0
-0.145488 -0.388067 0
-0.152924 -0.410236 0
-0.158981 -0.428165 0
-0.163106 -0.440394 0
-0.164810 -0.445661 0
-0.163740 -0.443096 0
-0.159751 -0.432379 0
-0.152930 -0.413818 0
-0.143596 -0.388309 0
-0.132242 -0.357201 0
-0.119459 -0.322096 0
-0.105856 -0.284629 0
-0.091982 -0.246285 0
-0.078283 -0.208271 0
-0.065079 -0.171458 0
-0.052561 -0.136377 0
-0.040808 -0.103247 0
-0.029803 -0.072022 0
-0.019452 -0.042432 0
-0.009594 -0.014003 0
0.000000 0.000000 0
0.000000 0.000000 0
-0.004905 -0.003107 0
-0.009714 -0.006360 0
-0.014351 -0.009823 0
-0.018762 -0.013555 0
-0.022919 -0.017606 0
-0.026814 -0.022018 0
-0.030455 -0.026829 0
-0.033863 -0.032073 0
-0.037065 -0.037786 0
-0.040099 -0.044007 0
-0.043005 -0.050778 0
-0.045826 -0.058151 0
-0.048609 -0.066182 0
-0.051406 -0.074941 0
-0.054268 -0.084504 0
-0.057254 -0.094963 0
-0.060423 -0.106419 0
-0.063841 -0.118987 0
-0.067577 -0.132792 0
-0.071704 -0.147966 0
-0.076296 -0.164644 0
-0.081427 -0.182954 0
-0.087161 -0.202998 0
-0.093551 -0.224835 0
-0.100623 -0.248448 0
-0.108363 -0.273704 0
-0.116697 -0.300308 0
-0.125473 -0.327754 0
-0.134441 -0.355278 0
-0.143241 -0.381839 0
-0.151404 -0.406128 0
-0.158375 -0.426640 0
-0.163561 -0.441807 0
-0.166402 -0.450187 0
-0.166456 -0.450674 0
-0.163476 -0.442698 0
-0.157464 -0.426336 0
-0.148671 -0.402317 0
-0.137565 -0.371918 0
-0.124748 -0.336761 0
-0.110870 -0.298580 0
-0.096540 -0.259008 0
-0.082268 -0.219418 0
-0.068432 -0.180838 0
-0.055272 -0.143924 0
-0.042898 -0.108984 0
-0.031312 -0.076023 0
-0.020424 -0.044786 0
-0.010068 -0.014781 0
0.000000 0.000000 0
0.000000 0.000000 0
-0.004900 -0.002082 0
-0.009706 -0.004390 0
-0.014337 -0.007012 0
-0.018736 -0.010016 0
-0.022875 -0.013449 0
-0.026743 -0.017343 0
-0.030347 -0.021723 0
-0.033706 -0.026610 0
-0.036848 -0.032022 0
-0.039808 -0.037983 0
-0.042624 -0.044522 0
-0.045339 -0.051677 0
-0.047998 -0.059494 0
-0.050649 -0.068031 0
-0.053347 -0.077357 0
-0.056146 -0.087556 0
-0.059108 -0.098725 0
-0.062300 -0.110975 0
-0.065792 -0.124432 0
-0.069660 -0.139233 0
-0.073984 -0.155522 0
-0.078844 -0.173441 0
-0.084317 -0.193119 0
-0.090469 -0.214650 0
-0.097346 -0.238064 0
-0.104956 -0.263291 0
-0.113259 -0.290111 0
-0.122134 -0.318105 0
-0.131366 -0.346593 0
-0.140626 -0.374608 0
-0.149461 -0.400881 0
-0.157315 -0.423896 0
-0.163560 -0.441999 0
-0.167575 -0.453585 0
-0.168828 -0.457320 0
-0.166965 -0.452364 0
-0.161885 -0.438533 0
-0.153763 -0.416353 0
-0.143019 -0.386981 0
-0.130257 -0.352026 0
-0.116158 -0.313301 0
-0.101392 -0.272583 0
-0.086539 -0.231419 0
-0.072044 -0.191006 0
-0.058200 -0.152149 0
-0.045159 -0.115262 0