# vtk DataFile Version 2.0
generated by CFD-lab course output (written by Tobias Neckel) 
ASCII

DATASET STRUCTURED_GRID
DIMENSIONS  51 51 1 
POINTS 2601 float

0.000000 0.000000 0
0.020000 0.000000 0
0.040000 0.000000 0
0.060000 0.000000 0
0.080000 0.000000 0
0.100000 0.000000 0
0.120000 0.000000 0
0.140000 0.000000 0
0.160000 0.000000 0
0.180000 0.000000 0
0.200000 0.000000 0
0.220000 0.000000 0
0.240000 0.000000 0
0.260000 0.000000 0
0.280000 0.000000 0
0.300000 0.000000 0
0.320000 0.000000 0
0.340000 0.000000 0
0.360000 0.000000 0
0.380000 0.000000 0
0.400000 0.000000 0
0.420000 0.000000 0
0.440000 0.000000 0
0.460000 0.000000 0
0.480000 0.000000 0
0.500000 0.000000 0
0.520000 0.000000 0
0.540000 0.000000 0
0.560000 0.000000 0
0.580000 0.000000 0
0.600000 0.000000 0
0.620000 0.000000 0
0.640000 0.000000 0
0.660000 0.000000 0
0.680000 0.000000 0
0.700000 0.000000 0
0.720000 0.000000 0
0.740000 0.000000 0
0.760000 0.000000 0
0.780000 0.000000 0
0.800000 0.000000 0
0.820000 0.000000 0
0.840000 0.000000 0
0.860000 0.000000 0
0.880000 0.000000 0
0.900000 0.000000 0
0.920000 0.000000 0
0.940000 0.000000 0
0.960000 0.000000 0
0.980000 0.000000 0
1.000000 0.000000 0
0.000000 0.020000 0
0.020000 0.020000 0
0.040000 0.020000 0
0.060000 0.020000 0
0.080000 0.020000 0
0.100000 0.020000 0
0.120000 0.020000 0
0.140000 0.020000 0
0.160000 0.020000 0
0.180000 0.020000 0
0.200000 0.020000 0
0.220000 0.020000 0
0.240000 0.020000 0
0.260000 0.020000 0
0.280000 0.020000 0
0.300000 0.020000 0
0.320000 0.020000 0
0.340000 0.020000 0
0.360000 0.020000 0
0.380000 0.020000 0
0.400000 0.020000 0
0.420000 0.020000 0
0.440000 0.020000 0
0.460000 0.020000 0
0.480000 0.020000 0
0.500000 0.020000 0
0.520000 0.020000 0
0.540000 0.020000 0
0.560000 0.020000 0
0.580000 0.020000 0
0.600000 0.020000 0
0.620000 0.020000 0
0.640000 0.020000 0
0.660000 0.020000 0
0.680000 0.020000 0
0.700000 0.020000 0
0.720000 0.020000 0
0.740000 0.020000 0
0.760000 0.020000 0
0.780000 0.020000 0
0.800000 0.020000 0
0.820000 0.020000 0
0.840000 0.020000 0
0.860000 0.020000 0
0.880000 0.020000 0
0.900000 0.020000 0
0.920000 0.020000 0
0.940000 0.020000 0
0.960000 0.020000 0
0.980000 0.020000 0
1.000000 0.020000 0
0.000000 0.040000 0
0.020000 0.040000 0
0.040000 0.040000 0
0.060000 0.040000 0
0.080000 0.040000 0
0.100000 0.040000 0
0.120000 0.040000 0
0.140000 0.040000 0
0.160000 0.040000 0
0.180000 0.040000 0
0.200000 0.040000 0
0.220000 0.040000 0
0.240000 0.040000 0
0.260000 0.040000 0
0.280000 0.040000 0
0.300000 0.040000 0
0.320000 0.040000 0
0.340000 0.040000 0
0.360000 0.040000 0
0.380000 0.040000 0
0.400000 0.040000 0
0.420000 0.040000 0
0.440000 0.040000 0
0.460000 0.040000 0
0.480000 0.040000 0
0.500000 0.040000 0
0.520000 0.040000 0
0.540000 0.040000 0
0.560000 0.040000 0
0.580000 0.040000 0
0.600000 0.040000 0
0.620000 0.040000 0
0.640000 0.040000 0
0.660000 0.040000 0
0.680000 0.040000 0
0.700000 0.040000 0
0.720000 0.040000 0
0.740000 0.040000 0
0.760000 0.040000 0
0.780000 0.040000 0
0.800000 0.040000 0
0.820000 0.040000 0
0.840000 0.040000 0
0.860000 0.040000 0
0.880000 0.040000 0
0.900000 0.040000 0
0.920000 0.040000 0
0.940000 0.040000 0
0.960000 0.040000 0
0.980000 0.040000 0
1.000000 0.040000 0
0.000000 0.060000 0
0.020000 0.060000 0
0.040000 0.060000 0
0.060000 0.060000 0
0.080000 0.060000 0
0.100000 0.060000 0
0.120000 0.060000 0
0.140000 0.060000 0
0.160000 0.060000 0
0.180000 0.060000 0
0.200000 0.060000 0
0.220000 0.060000 0
0.240000 0.060000 0
0.260000 0.060000 0
0.280000 0.060000 0
0.300000 0.060000 0
0.320000 0.060000 0
0.340000 0.060000 0
0.360000 0.060000 0
0.380000 0.060000 0
0.400000 0.060000 0
0.420000 0.060000 0
0.440000 0.060000 0
0.460000 0.060000 0
0.480000 0.060000 0
0.500000 0.060000 0
0.520000 0.060000 0
0.540000 0.060000 0
0.560000 0.060000 0
0.580000 0.060000 0
0.600000 0.060000 0
0.620000 0.060000 0
0.640000 0.060000 0
0.660000 0.060000 0
0.680000 0.060000 0
0.700000 0.060000 0
0.720000 0.060000 0
0.740000 0.060000 0
0.760000 0.060000 0
0.780000 0.060000 0
0.800000 0.060000 0
0.820000 0.060000 0
0.840000 0.060000 0
0.860000 0.060000 0
0.880000 0.060000 0
0.900000 0.060000 0
0.920000 0.060000 0
0.940000 0.060000 0
0.960000 0.060000 0
0.980000 0.060000 0
1.000000 0.060000 0
0.000000 0.080000 0
0.020000 0.080000 0
0.040000 0.080000 0
0.060000 0.080000 0
0.080000 0.080000 0
0.100000 0.080000 0
0.120000 0.080000 0
0.140000 0.080000 0
0.160000 0.080000 0
0.180000 0.080000 0
0.200000 0.080000 0
0.220000 0.080000 0
0.240000 0.080000 0
0.260000 0.080000 0
0.280000 0.080000 0
0.300000 0.080000 0
0.320000 0.080000 0
0.340000 0.080000 0
0.360000 0.080000 0
0.380000 0.080000 0
0.400000 0.080000 0
0.420000 0.080000 0
0.440000 0.080000 0
0.460000 0.080000 0
0.480000 0.080000 0
0.500000 0.080000 0
0.520000 0.080000 0
0.540000 0.080000 0
0.560000 0.080000 0
0.580000 0.080000 0
0.600000 0.080000 0
0.620000 0.080000 0
0.640000 0.080000 0
0.660000 0.080000 0
0.680000 0.080000 0
0.700000 0.080000 0
0.720000 0.080000 0
0.740000 0.080000 0
0.760000 0.080000 0
0.780000 0.080000 0
0.800000 0.080000 0
0.820000 0.080000 0
0.840000 0.080000 0
0.860000 0.080000 0
0.880000 0.080000 0
0.900000 0.080000 0
0.920000 0.080000 0
0.940000 0.080000 0
0.960000 0.080000 0
0.980000 0.080000 0
1.000000 0.080000 0
0.000000 0.100000 0
0.020000 0.100000 0
0.040000 0.100000 0
0.060000 0.100000 0
0.080000 0.100000 0
0.100000 0.100000 0
0.120000 0.100000 0
0.140000 0.100000 0
0.160000 0.100000 0
0.180000 0.100000 0
0.200000 0.100000 0
0.220000 0.100000 0
0.240000 0.100000 0
0.260000 0.100000 0
0.280000 0.100000 0
0.300000 0.100000 0
0.320000 0.100000 0
0.340000 0.100000 0
0.360000 0.100000 0
0.380000 0.100000 0
0.400000 0.100000 0
0.420000 0.100000 0
0.440000 0.100000 0
0.460000 0.100000 0
0.480000 0.100000 0
0.500000 0.100000 0
0.520000 0.100000 0
0.540000 0.100000 0
0.560000 0.100000 0
0.580000 0.100000 0
0.600000 0.100000 0
0.620000 0.100000 0
0.640000 0.100000 0
0.660000 0.100000 0
0.680000 0.100000 0
0.700000 0.100000 0
0.720000 0.100000 0
0.740000 0.100000 0
0.760000 0.100000 0
0.780000 0.100000 0
0.800000 0.100000 0
0.820000 0.100000 0
0.840000 0.100000 0
0.860000 0.100000 0
0.880000 0.100000 0
0.900000 0.100000 0
0.920000 0.100000 0
0.940000 0.100000 0
0.960000 0.100000 0
0.980000 0.100000 0
1.000000 0.100000 0
0.000000 0.120000 0
0.020000 0.120000 0
0.040000 0.120000 0
0.060000 0.120000 0
0.080000 0.120000 0
0.100000 0.120000 0
0.120000 0.120000 0
0.140000 0.120000 0
0.160000 0.120000 0
0.180000 0.120000 0
0.200000 0.120000 0
0.220000 0.120000 0
0.240000 0.120000 0
0.260000 0.120000 0
0.280000 0.120000 0
0.300000 0.120000 0
0.320000 0.120000 0
0.340000 0.120000 0
0.360000 0.120000 0
0.380000 0.120000 0
0.400000 0.120000 0
0.420000 0.120000 0
0.440000 0.120000 0
0.460000 0.120000 0
0.480000 0.120000 0
0.500000 0.120000 0
0.520000 0.120000 0
0.540000 0.120000 0
0.560000 0.120000 0
0.580000 0.120000 0
0.600000 0.120000 0
0.620000 0.120000 0
0.640000 0.120000 0
0.660000 0.120000 0
0.680000 0.120000 0
0.700000 0.120000 0
0.720000 0.120000 0
0.740000 0.120000 0
0.760000 0.120000 0
0.780000 0.120000 0
0.800000 0.120000 0
0.820000 0.120000 0
0.840000 0.120000 0
0.860000 0.120000 0
0.880000 0.120000 0
0.900000 0.120000 0
0.920000 0.120000 0
0.940000 0.120000 0
0.960000 0.120000 0
0.980000 0.120000 0
1.000000 0.120000 0
0.000000 0.140000 0
0.020000 0.140000 0
0.040000 0.140000 0
0.060000 0.140000 0
0.080000 0.140000 0
0.100000 0.140000 0
0.120000 0.140000 0
0.140000 0.140000 0
0.160000 0.140000 0
0.180000 0.140000 0
0.200000 0.140000 0
0.220000 0.140000 0
0.240000 0.140000 0
0.260000 0.140000 0
0.280000 0.140000 0
0.300000 0.140000 0
0.320000 0.140000 0
0.340000 0.140000 0
0.360000 0.140000 0
0.380000 0.140000 0
0.400000 0.140000 0
0.420000 0.140000 0
0.440000 0.140000 0
0.460000 0.140000 0
0.480000 0.140000 0
0.500000 0.140000 0
0.520000 0.140000 0
0.540000 0.140000 0
0.560000 0.140000 0
0.580000 0.140000 0
0.600000 0.140000 0
0.620000 0.140000 0
0.640000 0.140000 0
0.660000 0.140000 0
0.680000 0.140000 0
0.700000 0.140000 0
0.720000 0.140000 0
0.740000 0.140000 0
0.760000 0.140000 0
0.780000 0.140000 0
0.800000 0.140000 0
0.820000 0.140000 0
0.840000 0.140000 0
0.860000 0.140000 0
0.880000 0.140000 0
0.900000 0.140000 0
0.920000 0.140000 0
0.940000 0.140000 0
0.960000 0.140000 0
0.980000 0.140000 0
1.000000 0.140000 0
0.000000 0.160000 0
0.020000 0.160000 0
0.040000 0.160000 0
0.060000 0.160000 0
0.080000 0.160000 0
0.100000 0.160000 0
0.120000 0.160000 0
0.140000 0.160000 0
0.160000 0.160000 0
0.180000 0.160000 0
0.200000 0.160000 0
0.220000 0.160000 0
0.240000 0.160000 0
0.260000 0.160000 0
0.280000 0.160000 0
0.300000 0.160000 0
0.320000 0.160000 0
0.340000 0.160000 0
0.360000 0.160000 0
0.380000 0.160000 0
0.400000 0.160000 0
0.420000 0.160000 0
0.440000 0.160000 0
0.460000 0.160000 0
0.480000 0.160000 0
0.500000 0.160000 0
0.520000 0.160000 0
0.540000 0.160000 0
0.560000 0.160000 0
0.580000 0.160000 0
0.600000 0.160000 0
0.620000 0.160000 0
0.640000 0.160000 0
0.660000 0.160000 0
0.680000 0.160000 0
0.700000 0.160000 0
0.720000 0.160000 0
0.740000 0.160000 0
0.760000 0.160000 0
0.780000 0.160000 0
0.800000 0.160000 0
0.820000 0.160000 0
0.840000 0.160000 0
0.860000 0.160000 0
0.880000 0.160000 0
0.900000 0.160000 0
0.920000 0.160000 0
0.940000 0.160000 0
0.960000 0.160000 0
0.980000 0.160000 0
1.000000 0.160000 0
0.000000 0.180000 0
0.020000 0.180000 0
0.040000 0.180000 0
0.060000 0.180000 0
0.080000 0.180000 0
0.100000 0.180000 0
0.120000 0.180000 0
0.140000 0.180000 0
0.160000 0.180000 0
0.180000 0.180000 0
0.200000 0.180000 0
0.220000 0.180000 0
0.240000 0.180000 0
0.260000 0.180000 0
0.280000 0.180000 0
0.300000 0.180000 0
0.320000 0.180000 0
0.340000 0.180000 0
0.360000 0.180000 0
0.380000 0.180000 0
0.400000 0.180000 0
0.420000 0.180000 0
0.440000 0.180000 0
0.460000 0.180000 0
0.480000 0.180000 0
0.500000 0.180000 0
0.520000 0.180000 0
0.540000 0.180000 0
0.560000 0.180000 0
0.580000 0.180000 0
0.600000 0.180000 0
0.620000 0.180000 0
[...]
POINT_DATA 2601 

VECTORS velocity float
0.000000 0.000000 0
0.000000 0.000000 0
0.000000 0.000000 0
0.000000 0.000000 0
0.000001 0.000000 0
0.000001 0.000000 0
0.000001 0.000000 0
0.000001 0.000000 0
0.000001 0.000000 0
0.000001 0.000000 0
0.000002 0.000000 0
0.000002 0.000000 0
0.000002 0.000000 0
0.000002 0.000000 0
0.000002 0.000000 0
0.000002 0.000000 0
0.000002 0.000000 0
0.000002 0.000000 0
0.000002 0.000000 0
0.000002 0.000000 0
0.000002 0.000000 0
0.000002 0.000000 0
0.000002 0.000000 0
0.000002 0.000000 0
0.000001 0.000000 0
0.000001 0.000000 0
0.000001 0.000000 0
0.000001 0.000000 0
0.000001 0.000000 0
0.000000 0.000000 0
0.000000 0.000000 0
0.000000 0.000000 0
0.000000 0.000000 0
0.000000 0.000000 0
-0.000000 0.000000 0
-0.000000 0.000000 0
-0.000000 0.000000 0
-0.000000 0.000000 0
-0.000000 0.000000 0
-0.000000 0.000000 0
-0.000000 0.000000 0
-0.000000 0.000000 0
-0.000000 0.000000 0
-0.000000 0.000000 0
-0.000000 0.000000 0
-0.000000 0.000000 0
-0.000000 0.000000 0
-0.000000 0.000000 0
-0.000000 0.000000 0
-0.000000 0.000000 0
0.000000 0.000000 0
0.000000 0.000000 0
-0.001073 -0.001746 0
-0.002176 -0.003560 0
-0.003330 -0.005502 0
-0.004552 -0.007623 0
-0.005855 -0.009974 0
-0.007252 -0.012609 0
-0.008758 -0.015582 0
-0.010388 -0.018959 0
-0.012161 -0.022810 0
-0.014097 -0.027218 0
-0.016223 -0.032275 0
-0.018568 -0.038088 0
-0.021164 -0.044772 0
-0.024046 -0.052448 0
-0.027246 -0.061244 0
-0.030798 -0.071277 0
-0.034723 -0.082646 0
-0.039033 -0.095413 0
-0.043721 -0.109579 0
-0.048752 -0.125059 0
-0.054059 -0.141656 0
-0.059533 -0.159032 0
-0.065023 -0.176690 0
-0.070330 -0.193973 0
-0.075215 -0.210083 0
-0.079412 -0.224125 0
-0.082648 -0.235181 0
-0.084671 -0.242413 0
-0.085280 -0.245164 0
-0.084357 -0.243064 0
-0.081891 -0.236094 0
-0.077981 -0.224608 0
-0.072831 -0.209296 0
-0.066729 -0.191096 0
-0.060005 -0.171076 0
-0.052998 -0.150306 0
-0.046019 -0.129743 0
-0.039324 -0.110156 0
-0.033101 -0.092090 0
-0.027470 -0.075869 0
-0.022487 -0.061619 0
-0.018154 -0.049318 0
-0.014440 -0.038837 0
-0.011286 -0.029984 0
-0.008624 -0.022534 0
-0.006376 -0.016251 0
-0.004467 -0.010898 0
-0.002821 -0.006239 0
-0.001360 -0.002027 0
0.000000 0.000000 0
0.000000 0.000000 0
-0.002099 -0.003397 0
-0.004248 -0.006914 0
-0.006483 -0.010656 0
-0.008830 -0.014713 0
-0.011311 -0.019170 0
-0.013941 -0.024111 0
-0.016738 -0.029622 0
-0.019722 -0.035797 0
-0.022914 -0.042736 0
-0.026340 -0.050550 0
-0.030028 -0.059355 0
-0.034010 -0.069275 0
-0.038319 -0.080435 0
-0.042989 -0.092951 0
-0.048046 -0.106924 0
-0.053509 -0.122426 0
-0.059385 -0.139478 0
-0.065661 -0.158041 0
-0.072300 -0.177988 0
-0.079234 -0.199095 0
-0.086362 -0.221019 0
-0.093543 -0.243295 0
-0.100596 -0.265329 0
-0.107302 -0.286416 0
-0.113408 -0.305755 0
-0.118638 -0.322485 0
-0.122707 -0.335744 0
-0.125346 -0.344727 0
-0.126325 -0.348763 0
-0.125482 -0.347394 0
-0.122750 -0.340442 0
-0.118170 -0.328051 0
-0.111898 -0.310697 0
-0.104194 -0.289155 0
-0.095397 -0.264428 0
-0.085895 -0.237647 0
-0.076079 -0.209963 0
-0.066315 -0.182437 0
-0.056912 -0.155965 0
-0.048108 -0.131224 0
-0.040058 -0.108658 0
-0.032846 -0.088491 0
-0.026490 -0.070759 0
-0.020957 -0.055354 0
-0.016179 -0.042064 0
-0.012067 -0.030612 0
-0.008514 -0.020675 0
-0.005405 -0.011896 0
-0.002615 -0.003875 0
0.000000 0.000000 0
0.000000 0.000000 0
-0.003032 -0.004863 0
-0.006120 -0.009874 0
-0.009305 -0.015159 0
-0.012613 -0.020827 0
-0.016059 -0.026971 0
-0.019654 -0.033680 0
-0.023409 -0.041042 0
-0.027334 -0.049142 0
-0.031440 -0.058070 0
-0.035744 -0.067916 0
-0.040263 -0.078770 0
-0.045017 -0.090716 0
-0.050026 -0.103834 0
-0.055308 -0.118182 0
-0.060877 -0.133798 0
-0.066740 -0.150687 0
-0.072893 -0.168811 0
-0.079319 -0.188081 0
-0.085984 -0.208350 0
-0.092837 -0.229404 0
-0.099798 -0.250954 0
-0.106765 -0.272629 0
-0.113600 -0.293969 0
-0.120131 -0.314423 0
-0.126152 -0.333350 0
-0.131423 -0.350033 0
-0.135684 -0.363712 0
-0.138669 -0.373630 0
-0.140133 -0.379101 0
-0.139879 -0.379585 0
-0.137786 -0.374763 0
-0.133833 -0.364591 0
-0.128103 -0.349327 0
-0.120786 -0.329517 0
-0.112158 -0.305948 0
-0.102555 -0.279576 0
-0.092343 -0.251435 0
-0.081884 -0.222551 0
-0.071510 -0.193866 0
-0.061502 -0.166175 0
-0.052078 -0.140096 0
-0.043387 -0.116045 0
-0.035510 -0.094253 0
-0.028471 -0.074774 0
-0.022242 -0.057521 0
-0.016758 -0.042294 0
-0.011924 -0.028800 0
-0.007619 -0.016669 0
-0.003702 -0.005446 0
0.000000 0.000000 0
0.000000 0.000000 0
-0.003838 -0.006077 0
-0.007724 -0.012301 0
-0.011690 -0.018799 0
-0.015753 -0.025675 0
-0.019916 -0.033014 0
-0.024179 -0.040891 0
-0.028538 -0.049376 0
-0.032992 -0.058531 0
-0.037542 -0.068421 0
-0.042195 -0.079105 0
-0.046958 -0.090640 0
-0.051847 -0.103081 0
-0.056878 -0.116471 0
-0.062068 -0.130845 0
-0.067434 -0.146222 0
-0.072992 -0.162602 0
-0.078753 -0.179964 0
-0.084722 -0.198255 0
-0.090893 -0.217391 0
-0.097246 -0.237240 0
-0.103742 -0.257616 0
-0.110313 -0.278259 0
-0.116859 -0.298819 0
-0.123237 -0.318842 0
-0.129262 -0.337762 0
-0.134703 -0.354904 0
-0.139298 -0.369512 0
-0.142766 -0.380796 0
-0.144832 -0.387997 0
-0.145264 -0.390477 0
-0.143898 -0.387800 0
-0.140667 -0.379799 0
-0.135613 -0.366614 0
-0.128888 -0.348683 0
-0.120737 -0.326699 0
-0.111471 -0.301534 0
-0.101432 -0.274151 0
-0.090968 -0.245522 0
-0.080403 -0.216554 0
-0.070020 -0.188040 0
-0.060050 -0.160629 0
-0.050666 -0.134802 0
-0.041980 -0.110876 0
-0.034052 -0.089009 0
-0.026888 -0.069212 0
-0.020452 -0.051368 0
-0.014670 -0.035247 0
-0.009434 -0.020514 0
-0.004604 -0.006723 0
0.000000 0.000000 0
0.000000 0.000000 0
-0.004497 -0.007000 0
-0.009022 -0.014123 0
-0.013590 -0.021479 0
-0.018200 -0.029155 0
-0.022843 -0.037217 0
-0.027505 -0.045722 0
-0.032174 -0.054719 0
-0.036839 -0.064252 0
-0.041499 -0.074367 0
-0.046157 -0.085107 0
-0.050827 -0.096518 0
-0.055526 -0.108646 0
-0.060279 -0.121534 0
-0.065116 -0.135226 0
-0.070070 -0.149760 0
-0.075173 -0.165168 0
-0.080458 -0.181470 0
-0.085954 -0.198672 0
-0.091678 -0.216753 0
-0.097638 -0.235654 0
-0.103816 -0.255258 0
-0.110167 -0.275376 0
-0.116611 -0.295719 0
-0.123018 -0.315880 0
-0.129212 -0.335324 0
-0.134964 -0.353384 0
-0.140005 -0.369286 0
-0.144036 -0.382192 0
-0.146756 -0.391268 0
-0.147897 -0.395774 0
-0.147253 -0.395157 0
-0.144713 -0.389135 0
-0.140282 -0.377742 0
-0.134083 -0.361340 0
-0.126343 -0.340575 0
-0.117366 -0.316298 0
-0.107495 -0.289472 0
-0.097080 -0.261075 0
-0.086450 -0.232019 0
-0.075892 -0.203103 0
-0.065639 -0.174980 0
-0.055869 -0.148145 0
-0.046705 -0.122938 0
-0.038218 -0.099554 0
-0.030432 -0.078050 0
-0.023327 -0.058357 0
-0.016846 -0.040292 0
-0.010893 -0.023558 0
-0.005337 -0.007740 0
0.000000 0.000000 0
0.000000 0.000000 0
-0.005007 -0.007624 0
-0.010013 -0.015333 0
-0.015012 -0.023212 0
-0.019986 -0.031323 0
-0.024913 -0.039715 0
-0.029770 -0.048429 0
-0.034539 -0.057503 0
-0.039213 -0.066974 0
-0.043791 -0.076882 0
-0.048285 -0.087272 0
-0.052717 -0.098196 0
-0.057117 -0.109708 0
-0.061524 -0.121870 0
-0.065980 -0.134745 0
-0.070535 -0.148401 0
-0.075236 -0.162904 0
-0.080132 -0.178313 0
-0.085267 -0.194674 0
-0.090676 -0.212013 0
-0.096378 -0.230315 0
-0.102371 -0.249509 0
-0.108624 -0.269448 0
-0.115067 -0.289883 0
-0.121584 -0.310443 0
-0.128007 -0.330615 0
-0.134112 -0.349746 0
-0.139627 -0.367052 0
-0.144243 -0.381660 0
-0.147637 -0.392668 0
-0.149505 -0.399242 0
-0.149599 -0.400710 0
-0.147762 -0.396661 0
-0.143955 -0.387013 0
-0.138265 -0.372036 0
-0.130901 -0.352323 0
-0.122160 -0.328716 0
-0.112395 -0.302201 0
-0.101972 -0.273800 0
-0.091239 -0.244475 0
-0.080497 -0.215068 0
-0.069992 -0.186262 0
-0.059910 -0.158571 0
-0.050379 -0.132349 0
-0.041473 -0.107799 0
-0.033221 -0.084994 0
-0.025610 -0.063885 0
-0.018590 -0.044309 0
-0.012072 -0.025996 0
-0.005932 -0.008557 0
0.000000 0.000000 0
0.000000 0.000000 0
-0.005377 -0.007966 0
-0.010722 -0.015976 0
-0.016007 -0.024085 0
-0.021197 -0.032333 0
-0.026261 -0.040758 0
-0.031173 -0.049392 0
-0.035917 -0.058269 0
-0.040489 -0.067431 0
-0.044900 -0.076924 0
-0.049170 -0.086802 0
-0.053334 -0.097129 0
-0.057433 -0.107978 0
-0.061519 -0.119425 0
-0.065645 -0.131558 0
-0.069870 -0.144465 0
-0.074255 -0.158235 0
-0.078855 -0.172956 0
-0.083724 -0.188700 0
-0.088906 -0.205520 0
-0.094428 -0.223430 0
-0.100299 -0.242393 0
-0.106499 -0.262293 0
-0.112970 -0.282919 0
-0.119609 -0.303932 0
-0.126260 -0.324855 0
-0.132710 -0.345055 0
-0.138690 -0.363754 0
-0.143885 -0.380057 0
-0.147955 -0.393014 0
-0.150566 -0.401699 0
-0.151426 -0.405323 0
-0.150329 -0.403339 0
-0.147185 -0.395529 0
-0.142039 -0.382049 0
-0.135071 -0.363421 0
-0.126567 -0.340459 0
-0.116888 -0.314171 0
-0.106420 -0.285634 0
-0.095536 -0.255883 0
-0.084566 -0.225833 0
-0.073777 -0.196226 0
-0.063372 -0.167620 0
-0.053487 -0.140395 0
-0.044201 -0.114768 0
-0.035545 -0.090816 0
-0.027507 -0.068495 0
-0.020037 -0.047651 0
-0.013051 -0.028022 0
-0.006427 -0.009236 0
0.000000 0.000000 0
0.000000 0.000000 0
-0.005626 -0.008057 0
-0.011190 -0.016122 0
-0.016644 -0.024221 0
-0.021940 -0.032380 0
-0.027042 -0.040628 0
-0.031924 -0.048996 0
-0.036575 -0.057525 0
-0.041000 -0.066260 0
-0.045218 -0.075261 0
-0.049262 -0.084593 0
-0.053175 -0.094333 0
-0.057010 -0.104566 0
-0.060824 -0.115385 0
-0.064680 -0.126890 0
-0.068642 -0.139182 0
-0.072776 -0.152368 0
-0.077144 -0.166548 0
-0.081803 -0.181813 0
-0.086802 -0.198232 0
-0.092176 -0.215844 0
-0.097944 -0.234636 0
-0.104095 -0.254524 0
-0.110585 -0.275332 0
-0.117327 -0.296764 0
-0.124180 -0.318380 0
-0.130946 -0.339582 0
-0.137364 -0.359611 0
-0.143119 -0.377567 0
-0.147859 -0.392460 0
-0.151223 -0.403287 0
-0.152878 -0.409146 0
-0.152565 -0.409347 0
-0.150139 -0.403525 0
-0.145596 -0.391701 0
-0.139076 -0.374295 0
-0.130848 -0.352077 0
-0.121273 -0.326059 0
-0.110756 -0.297368 0
-0.099700 -0.267121 0
-0.088468 -0.236321 0
-0.077357 -0.205797 0
-0.066594 -0.176172 0
-0.056332 -0.147871 0
-0.046660 -0.121138 0
-0.037611 -0.096061 0
-0.029175 -0.072600 0
-0.021300 -0.050599 0
-0.013901 -0.029798 0
-0.006855 -0.009829 0
0.000000 0.000000 0
0.000000 0.000000 0
-0.005776 -0.007936 0
-0.011464 -0.015851 0
-0.016999 -0.023752 0
-0.022325 -0.031654 0
-0.027402 -0.039584 0
-0.032208 -0.047577 0
-0.036737 -0.055678 0
-0.041003 -0.063945 0
-0.045035 -0.072444 0
-0.048872 -0.081253 0
-0.052567 -0.090456 0
-0.056178 -0.100147 0
-0.059767 -0.110428 0
-0.063401 -0.121405 0
-0.067148 -0.133188 0
-0.071074 -0.145889 0
-0.075245 -0.159619 0
-0.079721 -0.174478 0
-0.084555 -0.190551 0
-0.089789 -0.207892 0
-0.095449 -0.226514 0
-0.101536 -0.246364 0
-0.108022 -0.267304 0
-0.114835 -0.289081 0
-0.121854 -0.311303 0
-0.128897 -0.333413 0
-0.135717 -0.354684 0
-0.142004 -0.374223 0
-0.147399 -0.391017 0
-0.151518 -0.404000 0
-0.153990 -0.412161 0
-0.154506 -0.414672 0
-0.152859 -0.411004 0
-0.148988 -0.401026 0
-0.142986 -0.385036 0
-0.135095 -0.363728 0
-0.125669 -0.338100 0
-0.115126 -0.309319 0
-0.103899 -0.278580 0
-0.092387 -0.246984 0
-0.080925 -0.215461 0
-0.069770 -0.184719 0
-0.059099 -0.155250 0
-0.049017 -0.127339 0
-0.039564 -0.101097 0
-0.030730 -0.076490 0
-0.022464 -0.053363 0
-0.014677 -0.031449 0
-0.007244 -0.010379 0
0.000000 0.000000 0
0.000000 0.000000 0
-0.005849 -0.007639 0
-0.011590 -0.015239 0
-0.017144 -0.022796 0
-0.022449 -0.030321 0
-0.027465 -0.037840 0
-0.032172 -0.045394 0
-0.036573 -0.053035 0
-0.040687 -0.060828 0
-0.044549 -0.068846 0
-0.048206 -0.077172 0
-0.051715 -0.085896 0
-0.055137 -0.095115 0
-0.058538 -0.104932 0
-0.061985 -0.115458 0
-0.065546 -0.126804 0
-0.069289 -0.139085 0
-0.073281 -0.152417 0
-0.077585 -0.166906 0
-0.082256 -0.182649 0
-0.087344 -0.199717 0
-0.092881 -0.218144 0
-0.098883 -0.237910 0
-0.105334 -0.258914 0
-0.112183 -0.280950 0
-0.119326 -0.303676 0
-0.126602 -0.326587 0
-0.133782 -0.348994 0
-0.140565 -0.370031 0
-0.146592 -0.388671 0
-0.151460 -0.403801 0
-0.154766 -0.414315 0
-0.156149 -0.419245 0
-0.155341 -0.417898 0
-0.152217 -0.409972 0
-0.146814 -0.395618 0
-0.139334 -0.375429 0
-0.130118 -0.350364 0
-0.119592 -0.321611 0
-0.108214 -0.290437 0
-0.096421 -0.258047 0
-0.084589 -0.225478 0
-0.073014 -0.193544 0
-0.061903 -0.162817 0
-0.051379 -0.133642 0
-0.041497 -0.106163 0
-0.032251 -0.080364 0
-0.023590 -0.056088 0
-0.015420 -0.033066 0
-0.007614 -0.010914 0
0.000000 0.000000 0
0.000000 0.000000 0
-0.005866 -0.007197 0
-0.011609 -0.014351 0
-0.017140 -0.021451 0
-0.022394 -0.028510 0
-0.027330 -0.035558 0
-0.031932 -0.042638 0
-0.036209 -0.049810 0
-0.040183 -0.057140 0
-0.043896 -0.064706 0
-0.047399 -0.072592 0
-0.050749 -0.080889 0
-0.054010 -0.089693 0
-0.057247 -0.099106 0
-0.060529 -0.109236 0
-0.063923 -0.120195 0
-0.067496 -0.132097 0
-0.071317 -0.145060 0
-0.075449 -0.159197 0
-0.079954 -0.174610 0
-0.084883 -0.191388 0
-0.090280 -0.209587 0
-0.096171 -0.229215 0
-0.102556 -0.250211 0
-0.109401 -0.272415 0
-0.116625 -0.295540 0
-0.124087 -0.319135 0
-0.131580 -0.342564 0
-0.138817 -0.364994 0
-0.145444 -0.385406 0
-0.151047 -0.402652 0
-0.155195 -0.415546 0
-0.157477 -0.422988 0
-0.157565 -0.424119 0
-0.155262 -0.418454 0
-0.150544 -0.405971 0
-0.143562 -0.387138 0
-0.134631 -0.362844 0
-0.124177 -0.334280 0
-0.112682 -0.302772 0
-0.100620 -0.269626 0
-0.088412 -0.235998 0
-0.076395 -0.202816 0
-0.064813 -0.170751 0
-0.053816 -0.140221 0
-0.043476 -0.111421 0
-0.033794 -0.084356 0
-0.024721 -0.058878 0
-0.016161 -0.034711 0
-0.007980 -0.011457 0
0.000000 0.000000 0
0.000000 0.000000 0
-0.005845 -0.006635 0
-0.011556 -0.013234 0
-0.017039 -0.019790 0
-0.022224 -0.026317 0
-0.027074 -0.032851 0
-0.031574 -0.039439 0
-0.035735 -0.046141 0
-0.039586 -0.053027 0
-0.043170 -0.060172 0
-0.046539 -0.067658 0
-0.049751 -0.075572 0
-0.052871 -0.084007 0
-0.055963 -0.093061 0
-0.059093 -0.102838 0
-0.062330 -0.113445 0
-0.065740 -0.124997 0
-0.069391 -0.137609 0
-0.073349 -0.151399 0
-0.077677 -0.166478 0
-0.082435 -0.182947 0
-0.087672 -0.200881 0
-0.093426 -0.220318 0
-0.099712 -0.241233 0
-0.106514 -0.263516 0
-0.113773 -0.286932 0
-0.121372 -0.311092 0
-0.129127 -0.335418 0
-0.136770 -0.359123 0
-0.143958 -0.381211 0
-0.150273 -0.400520 0
-0.155260 -0.415795 0
-0.158466 -0.425822 0
-0.159500 -0.429573 0
-0.158094 -0.426370 0
-0.154149 -0.416004 0
-0.147758 -0.398782 0
-0.139198 -0.375500 0
-0.128887 -0.347322 0
-0.117323 -0.315618 0
-0.105015 -0.281788 0
-0.092431 -0.247112 0
-0.079957 -0.212645 0
-0.067877 -0.179172 0
-0.056375 -0.147199 0
-0.045543 -0.116983 0
-0.035396 -0.088564 0
-0.025888 -0.061808 0
-0.016921 -0.036434 0
-0.008355 -0.012025 0
0.000000 0.000000 0
0.000000 0.000000 0
-0.005800 -0.005969 0
-0.011460 -0.011922 0
-0.016881 -0.017860 0
-0.021992 -0.023804 0
-0.026756 -0.029794 0
-0.031161 -0.035879 0
-0.035220 -0.042118 0
-0.038962 -0.048578 0
-0.042433 -0.055331 0
-0.045685 -0.062451 0
-0.048777 -0.070021 0
-0.051770 -0.078126 0
-0.054728 -0.086857 0
-0.057717 -0.096313 0
-0.060802 -0.106597 0
-0.064051 -0.117818 0
-0.067530 -0.130094 0
-0.071307 -0.143541 0
-0.075449 -0.158279 0
-0.080020 -0.174418 0
-0.085077 -0.192054 0
-0.090668 -0.211249 0
-0.096822 -0.232016 0
-0.103542 -0.254289 0
-0.110790 -0.277890 0
-0.118476 -0.302493 0
-0.126438 -0.327585 0
-0.134435 -0.352435 0
-0.142136 -0.376087 0
-0.149130 -0.397380 0
-0.154944 -0.415013 0
-0.159089 -0.427668 0
-0.161114 -0.434160 0
-0.160675 -0.433614 0
-0.157594 -0.425610 0
-0.151894 -0.410273 0
-0.143803 -0.388267 0
-0.133717 -0.360705 0
-0.122142 -0.328977 0
-0.109623 -0.294569 0
-0.096675 -0.258883 0
-0.083733 -0.223113 0
-0.071132 -0.188171 0
-0.059092 -0.154668 0
-0.047733 -0.122936 0
-0.037088 -0.093064 0
-0.027114 -0.064935 0
-0.017716 -0.038269 0
-0.008745 -0.012630 0
0.000000 0.000000 0
0.000000 0.000000 0
-0.005743 -0.005208 0
-0.011344 -0.010433 0
-0.016699 -0.015688 0
-0.021738 -0.021006 0
-0.026422 -0.026427 0
-0.030742 -0.032002 0
-0.034711 -0.037787 0
-0.038360 -0.043840 0
-0.041733 -0.050226 0
-0.044883 -0.057012 0
-0.047866 -0.064271 0
-0.050743 -0.072079 0
-0.053575 -0.080520 0
-0.056427 -0.089683 0
-0.059363 -0.099668 0
-0.062450 -0.110578 0
-0.065753 -0.122528 0
-0.069343 -0.135637 0
-0.073288 -0.150028 0
-0.077656 -0.165822 0
-0.082513 -0.183129 0
-0.087915 -0.202037 0
-0.093906 -0.222593 0
-0.100505 -0.244773 0
-0.107697 -0.268456 0
-0.115416 -0.293380 0
-0.123529 -0.319101 0
-0.131822 -0.344956 0
-0.139984 -0.370042 0
-0.147615 -0.393216 0
-0.154234 -0.413156 0
-0.159321 -0.428456 0
-0.162371 -0.437785 0
-0.162965 -0.440071 0
-0.160838 -0.434672 0
-0.155934 -0.421502 0
-0.148417 -0.401063 0
-0.138649 -0.374378 0
-0.127138 -0.342834 0
-0.114455 -0.307986 0
-0.101160 -0.271358 0
-0.087748 -0.234285 0
-0.074604 -0.197824 0
-0.061995 -0.162706 0
-0.050073 -0.129356 0
-0.038891 -0.097919 0
-0.028419 -0.068310 0
-0.018559 -0.040249 0
-0.009158 -0.013282 0
0.000000 0.000000 0
0.000000 0.000000 0
-0.005684 -0.004353 0
-0.011225 -0.008770 0
-0.016519 -0.013284 0
-0.021492 -0.017934 0
-0.026107 -0.022766 0
-0.030354 -0.027827 0
-0.034247 -0.033164 0
-0.037817 -0.038829 0
-0.041106 -0.044875 0
-0.044165 -0.051356 0
-0.047049 -0.058335 0
-0.049818 -0.065877 0
-0.052530 -0.074057 0
-0.055248 -0.082955 0
-0.058035 -0.092663 0
-0.060956 -0.103281 0
-0.064079 -0.114919 0
-0.067473 -0.127696 0
-0.071209 -0.141737 0
-0.075360 -0.157173 0
-0.079996 -0.174127 0
-0.085185 -0.192709 0
-0.090982 -0.212994 0
-0.097423 -0.235004 0
-0.104513 -0.258669 0
-0.112213 -0.283793 0
-0.120418 -0.310006 0
-0.128944 -0.336719 0
-0.137508 -0.363092 0
-0.145725 -0.388026 0
-0.153117 -0.410191 0
-0.159139 -0.428121 0
-0.163238 -0.440354 0
-0.164922 -0.445626 0
-0.163837 -0.443065 0
-0.159836 -0.432350 0
-0.153006 -0.413787 0
-0.143664 -0.388272 0
-0.132302 -0.357157 0
-0.119513 -0.322043 0
-0.105903 -0.284568 0
-0.092023 -0.246217 0
-0.078319 -0.208200 0
-0.065109 -0.171387 0
-0.052585 -0.136311 0
-0.040827 -0.103189 0
-0.029817 -0.071978 0
-0.019461 -0.042403 0
-0.009598 -0.013993 0
0.000000 0.000000 0
0.000000 -0.000000 0
-0.005631 -0.003399 0
-0.011121 -0.006926 0
-0.016362 -0.010636 0
-0.021282 -0.014580 0
-0.025841 -0.018803 0
-0.030030 -0.023345 0
-0.033861 -0.028246 0
-0.037365 -0.033542 0
-0.040582 -0.039271 0
-0.043561 -0.045477 0
-0.046355 -0.052207 0
-0.049021 -0.059514 0
-0.051616 -0.067463 0
-0.054201 -0.076124 0
-0.056837 -0.085580 0
-0.059590 -0.095926 0
-0.062525 -0.107267 0
-0.065713 -0.119721 0
-0.069229 -0.133415 0
-0.073147 -0.148484 0
-0.077545 -0.165065 0
-0.082496 -0.183286 0
-0.088068 -0.203251 0
-0.094313 -0.225019 0
-0.101257 -0.248573 0
-0.108885 -0.273780 0
-0.117123 -0.300345 0
-0.125817 -0.327761 0
-0.134718 -0.355264 0
-0.143463 -0.381813 0
-0.151582 -0.406096 0
-0.158520 -0.426609 0
-0.163680 -0.441780 0
-0.166502 -0.450165 0
-0.166542 -0.450658 0
-0.163552 -0.442685 0
-0.157531 -0.426321 0
-0.148732 -0.402299 0
-0.137619 -0.371893 0
-0.124797 -0.336727 0
-0.110913 -0.298537 0
-0.096577 -0.258958 0
-0.082299 -0.219364 0
-0.068459 -0.180782 0
-0.055293 -0.143870 0
-0.042915 -0.108937 0
-0.031324 -0.075986 0
-0.020432 -0.044762 0
-0.010072 -0.014772 0
0.000000 0.000000 0
0.000000 -0.000000 0
-0.005590 -0.002333 0
-0.011043 -0.004881 0
-0.016248 -0.007722 0
-0.021131 -0.010917 0
-0.025651 -0.014511 0
-0.029797 -0.018533 0
-0.033582 -0.023007 0
-0.037033 -0.027954 0
-0.040190 -0.033396 0
-0.043098 -0.039357 0
-0.045809 -0.045870 0
-0.048376 -0.052975 0
-0.050856 -0.060724 0
-0.053307 -0.069178 0
-0.055790 -0.078409 0
-0.058368 -0.088506 0
-0.061108 -0.099569 0
-0.064082 -0.111712 0
-0.067364 -0.125065 0
-0.071034 -0.139766 0
-0.075173 -0.155960 0
-0.079863 -0.173793 0
-0.085182 -0.193393 0
-0.091195 -0.214855 0
-0.097948 -0.238209 0
-0.105452 -0.263386 0
-0.113662 -0.290166 0
-0.122458 -0.318128 0
-0.131625 -0.346594 0
-0.140832 -0.374594 0
-0.149625 -0.400861 0
-0.157446 -0.423876 0
-0.163667 -0.441983 0
-0.167664 -0.453575 0
-0.168904 -0.457316 0
-0.167032 -0.452364 0
-0.161945 -0.438533 0
-0.153816 -0.416350 0
-0.143068 -0.386973 0
-0.130300 -0.352010 0
-0.116196 -0.313276 0
-0.101426 -0.272549 0
-0.086568 -0.231379 0
-0.072068 -0.190964 0
-0.058220 -0.152107 0
-0.045174 -0.115224 0