# vtk DataFile Version 2.0
generated by CFD-lab course output (written by Tobias Neckel) 
ASCII

DATASET STRUCTURED_GRID
DIMENSIONS  51 51 1 
POINTS 2601 float

0.000000 0.000000 0
0.020000 0.000000 0
0.040000 0.000000 0
0.060000 0.000000 0
0.080000 0.000000 0
0.100000 0.000000 0
0.120000 0.000000 0
0.140000 0.000000 0
0.160000 0.000000 0
0.180000 0.000000 0
0.200000 0.000000 0
0.220000 0.000000 0
0.240000 0.000000 0
0.260000 0.000000 0
0.280000 0.000000 0
0.300000 0.000000 0
0.320000 0.000000 0
0.340000 0.000000 0
0.360000 0.000000 0
0.380000 0.000000 0
0.400000 0.000000 0
0.420000 0.000000 0
0.440000 0.000000 0
0.460000 0.000000 0
0.480000 0.000000 0
0.500000 0.000000 0
0.520000 0.000000 0
0.540000 0.000000 0
0.560000 0.000000 0
0.580000 0.000000 0
0.600000 0.000000 0
0.620000 0.000000 0
0.640000 0.000000 0
0.660000 0.000000 0
0.680000 0.000000 0
0.700000 0.000000 0
0.720000 0.000000 0
0.740000 0.000000 0
0.760000 0.000000 0
0.780000 0.000000 0
0.800000 0.000000 0
0.820000 0.000000 0
0.840000 0.000000 0
0.860000 0.000000 0
0.880000 0.000000 0
0.900000 0.000000 0
0.920000 0.000000 0
0.940000 0.000000 0
0.960000 0.000000 0
0.980000 0.000000 0
1.000000 0.000000 0
0.000000 0.020000 0
0.020000 0.020000 0
0.040000 0.020000 0
0.060000 0.020000 0
0.080000 0.020000 0
0.100000 0.020000 0
0.120000 0.020000 0
0.140000 0.020000 0
0.160000 0.020000 0
0.180000 0.020000 0
0.200000 0.020000 0
0.220000 0.020000 0
0.240000 0.020000 0
0.260000 0.020000 0
0.280000 0.020000 0
0.300000 0.020000 0
0.320000 0.020000 0
0.340000 0.020000 0
0.360000 0.020000 0
0.380000 0.020000 0
0.400000 0.020000 0
0.420000 0.020000 0
0.440000 0.020000 0
0.460000 0.020000 0
0.480000 0.020000 0
0.500000 0.020000 0
0.520000 0.020000 0
0.540000 0.020000 0
0.560000 0.020000 0
0.580000 0.020000 0
0.600000 0.020000 0
0.620000 0.020000 0
0.640000 0.020000 0
0.660000 0.020000 0
0.680000 0.020000 0
0.700000 0.020000 0
0.720000 0.020000 0
0.740000 0.020000 0
0.760000 0.020000 0
0.780000 0.020000 0
0.800000 0.020000 0
0.820000 0.020000 0
0.840000 0.020000 0
0.860000 0.020000 0
0.880000 0.020000 0
0.900000 0.020000 0
0.920000 0.020000 0
0.940000 0.020000 0
0.960000 0.020000 0
0.980000 0.020000 0
1.000000 0.020000 0
0.000000 0.040000 0
0.020000 0.040000 0
0.040000 0.040000 0
0.060000 0.040000 0
0.080000 0.040000 0
0.100000 0.040000 0
0.120000 0.040000 0
0.140000 0.040000 0
0.160000 0.040000 0
0.180000 0.040000 0
0.200000 0.040000 0
0.220000 0.040000 0
0.240000 0.040000 0
0.260000 0.040000 0
0.280000 0.040000 0
0.300000 0.040000 0
0.320000 0.040000 0
0.340000 0.040000 0
0.360000 0.040000 0
0.380000 0.040000 0
0.400000 0.040000 0
0.420000 0.040000 0
0.440000 0.040000 0
0.460000 0.040000 0
0.480000 0.040000 0
0.500000 0.040000 0
0.520000 0.040000 0
0.540000 0.040000 0
0.560000 0.040000 0
0.580000 0.040000 0
0.600000 0.040000 0
0.620000 0.040000 0
0.640000 0.040000 0
0.660000 0.040000 0
0.680000 0.040000 0
0.700000 0.040000 0
0.720000 0.040000 0
0.740000 0.040000 0
0.760000 0.040000 0
0.780000 0.040000 0
0.800000 0.040000 0
0.820000 0.040000 0
0.840000 0.040000 0
0.860000 0.040000 0
0.880000 0.040000 0
0.900000 0.040000 0
0.920000 0.040000 0
0.940000 0.040000 0
0.960000 0.040000 0
0.980000 0.040000 0
1.000000 0.040000 0
0.000000 0.060000 0
0.020000 0.060000 0
0.040000 0.060000 0
0.060000 0.060000 0
0.080000 0.060000 0
0.100000 0.060000 0
0.120000 0.060000 0
0.140000 0.060000 0
0.160000 0.060000 0
0.180000 0.060000 0
0.200000 0.060000 0
0.220000 0.060000 0
0.240000 0.060000 0
0.260000 0.060000 0
0.280000 0.060000 0
0.300000 0.060000 0
0.320000 0.060000 0
0.340000 0.060000 0
0.360000 0.060000 0
0.380000 0.060000 0
0.400000 0.060000 0
0.420000 0.060000 0
0.440000 0.060000 0
0.460000 0.060000 0
0.480000 0.060000 0
0.500000 0.060000 0
0.520000 0.060000 0
0.540000 0.060000 0
0.560000 0.060000 0
0.580000 0.060000 0
0.600000 0.060000 0
0.620000 0.060000 0
0.640000 0.060000 0
0.660000 0.060000 0
0.680000 0.060000 0
0.700000 0.060000 0
0.720000 0.060000 0
0.740000 0.060000 0
0.760000 0.060000 0
0.780000 0.060000 0
0.800000 0.060000 0
0.820000 0.060000 0
0.840000 0.060000 0
0.860000 0.060000 0
0.880000 0.060000 0
0.900000 0.060000 0
0.920000 0.060000 0
0.940000 0.060000 0
0.960000 0.060000 0
0.980000 0.060000 0
1.000000 0.060000 0
0.000000 0.080000 0
0.020000 0.080000 0
0.040000 0.080000 0
0.060000 0.080000 0
0.080000 0.080000 0
0.100000 0.080000 0
0.120000 0.080000 0
0.140000 0.080000 0
0.160000 0.080000 0
0.180000 0.080000 0
0.200000 0.080000 0
0.220000 0.080000 0
0.240000 0.080000 0
0.260000 0.080000 0
0.280000 0.080000 0
0.300000 0.080000 0
0.320000 0.080000 0
0.340000 0.080000 0
0.360000 0.080000 0
0.380000 0.080000 0
0.400000 0.080000 0
0.420000 0.080000 0
0.440000 0.080000 0
0.460000 0.080000 0
0.480000 0.080000 0
0.500000 0.080000 0
0.520000 0.080000 0
0.540000 0.080000 0
0.560000 0.080000 0
0.580000 0.080000 0
0.600000 0.080000 0
0.620000 0.080000 0
0.640000 0.080000 0
0.660000 0.080000 0
0.680000 0.080000 0
0.700000 0.080000 0
0.720000 0.080000 0
0.740000 0.080000 0
0.760000 0.080000 0
0.780000 0.080000 0
0.800000 0.080000 0
0.820000 0.080000 0
0.840000 0.080000 0
0.860000 0.080000 0
0.880000 0.080000 0
0.900000 0.080000 0
0.920000 0.080000 0
0.940000 0.080000 0
0.960000 0.080000 0
0.980000 0.080000 0
1.000000 0.080000 0
0.000000 0.100000 0
0.020000 0.100000 0
0.040000 0.100000 0
0.060000 0.100000 0
0.080000 0.100000 0
0.100000 0.100000 0
0.120000 0.100000 0
0.140000 0.100000 0
0.160000 0.100000 0
0.180000 0.100000 0
0.200000 0.100000 0
0.220000 0.100000 0
0.240000 0.100000 0
0.260000 0.100000 0
0.280000 0.100000 0
0.300000 0.100000 0
0.320000 0.100000 0
0.340000 0.100000 0
0.360000 0.100000 0
0.380000 0.100000 0
0.400000 0.100000 0
0.420000 0.100000 0
0.440000 0.100000 0
0.460000 0.100000 0
0.480000 0.100000 0
0.500000 0.100000 0
0.520000 0.100000 0
0.540000 0.100000 0
0.560000 0.100000 0
0.580000 0.100000 0
0.600000 0.100000 0
0.620000 0.100000 0
0.640000 0.100000 0
0.660000 0.100000 0
0.680000 0.100000 0
0.700000 0.100000 0
0.720000 0.100000 0
0.740000 0.100000 0
0.760000 0.100000 0
0.780000 0.100000 0
0.800000 0.100000 0
0.820000 0.100000 0
0.840000 0.100000 0
0.860000 0.100000 0
0.880000 0.100000 0
0.900000 0.100000 0
0.920000 0.100000 0
0.940000 0.100000 0
0.960000 0.100000 0
0.980000 0.100000 0
1.000000 0.100000 0
0.000000 0.120000 0
0.020000 0.120000 0
0.040000 0.120000 0
0.060000 0.120000 0
0.080000 0.120000 0
0.100000 0.120000 0
0.120000 0.120000 0
0.140000 0.120000 0
0.160000 0.120000 0
0.180000 0.120000 0
0.200000 0.120000 0
0.220000 0.120000 0
0.240000 0.120000 0
0.260000 0.120000 0
0.280000 0.120000 0
0.300000 0.120000 0
0.320000 0.120000 0
0.340000 0.120000 0
0.360000 0.120000 0
0.380000 0.120000 0
0.400000 0.120000 0
0.420000 0.120000 0
0.440000 0.120000 0
0.460000 0.120000 0
0.480000 0.120000 0
0.500000 0.120000 0
0.520000 0.120000 0
0.540000 0.120000 0
0.560000 0.120000 0
0.580000 0.120000 0
0.600000 0.120000 0
0.620000 0.120000 0
0.640000 0.120000 0
0.660000 0.120000 0
0.680000 0.120000 0
0.700000 0.120000 0
0.720000 0.120000 0
0.740000 0.120000 0
0.760000 0.120000 0
0.780000 0.120000 0
0.800000 0.120000 0
0.820000 0.120000 0
0.840000 0.120000 0
0.860000 0.120000 0
0.880000 0.120000 0
0.900000 0.120000 0
0.920000 0.120000 0
0.940000 0.120000 0
0.960000 0.120000 0
0.980000 0.120000 0
1.000000 0.120000 0
0.000000 0.140000 0
0.020000 0.140000 0
0.040000 0.140000 0
0.060000 0.140000 0
0.080000 0.140000 0
0.100000 0.140000 0
0.120000 0.140000 0
0.140000 0.140000 0
0.160000 0.140000 0
0.180000 0.140000 0
0.200000 0.140000 0
0.220000 0.140000 0
0.240000 0.140000 0
0.260000 0.140000 0
0.280000 0.140000 0
0.300000 0.140000 0
0.320000 0.140000 0
0.340000 0.140000 0
0.360000 0.140000 0
0.380000 0.140000 0
0.400000 0.140000 0
0.420000 0.140000 0
0.440000 0.140000 0
0.460000 0.140000 0
0.480000 0.140000 0
0.500000 0.140000 0
0.520000 0.140000 0
0.540000 0.140000 0
0.560000 0.140000 0
0.580000 0.140000 0
0.600000 0.140000 0
0.620000 0.140000 0
0.640000 0.140000 0
0.660000 0.140000 0
0.680000 0.140000 0
0.700000 0.140000 0
0.720000 0.140000 0
0.740000 0.140000 0
0.760000 0.140000 0
0.780000 0.140000 0
0.800000 0.140000 0
0.820000 0.140000 0
0.840000 0.140000 0
0.860000 0.140000 0
0.880000 0.140000 0
0.900000 0.140000 0
0.920000 0.140000 0
0.940000 0.140000 0
0.960000 0.140000 0
0.980000 0.140000 0
1.000000 0.140000 0
0.000000 0.160000 0
0.020000 0.160000 0
0.040000 0.160000 0
0.060000 0.160000 0
0.080000 0.160000 0
0.100000 0.160000 0
0.120000 0.160000 0
0.140000 0.160000 0
0.160000 0.160000 0
0.180000 0.160000 0
0.200000 0.160000 0
0.220000 0.160000 0
0.240000 0.160000 0
0.260000 0.160000 0
0.280000 0.160000 0
0.300000 0.160000 0
0.320000 0.160000 0
0.340000 0.160000 0
0.360000 0.160000 0
0.380000 0.160000 0
0.400000 0.160000 0
0.420000 0.160000 0
0.440000 0.160000 0
0.460000 0.160000 0
0.480000 0.160000 0
0.500000 0.160000 0
0.520000 0.160000 0
0.540000 0.160000 0
0.560000 0.160000 0
0.580000 0.160000 0
0.600000 0.160000 0
0.620000 0.160000 0
0.640000 0.160000 0
0.660000 0.160000 0
0.680000 0.160000 0
0.700000 0.160000 0
0.720000 0.160000 0
0.740000 0.160000 0
0.760000 0.160000 0
0.780000 0.160000 0
0.800000 0.160000 0
0.820000 0.160000 0
0.840000 0.160000 0
0.860000 0.160000 0
0.880000 0.160000 0
0.900000 0.160000 0
0.920000 0.160000 0
0.940000 0.160000 0
0.960000 0.160000 0
0.980000 0.160000 0
1.000000 0.160000 0
0.000000 0.180000 0
0.020000 0.180000 0
0.040000 0.180000 0
0.060000 0.180000 0
0.080000 0.180000 0
0.100000 0.180000 0
0.120000 0.180000 0
0.140000 0.180000 0
0.160000 0.180000 0
0.180000 0.180000 0
0.200000 0.180000 0
0.220000 0.180000 0
0.240000 0.180000 0
0.260000 0.180000 0
0.280000 0.180000 0
0.300000 0.180000 0
0.320000 0.180000 0
0.340000 0.180000 0
0.360000 0.180000 0
0.380000 0.180000 0
0.400000 0.180000 0
0.420000 0.180000 0
0.440000 0.180000 0
0.460000 0.180000 0
0.480000 0.180000 0
0.500000 0.180000 0
0.520000 0.180000 0
0.540000 0.180000 0
0.560000 0.180000 0
0.580000 0.180000 0
0.600000 0.180000 0
0.620000 0.180000 0
[...]
POINT_DATA 2601 

VECTORS velocity float
0.000000 0.000000 0
0.000000 0.000000 0
0.000000 0.000000 0
0.000000 0.000000 0
0.000000 0.000000 0
0.000000 0.000000 0
0.000000 0.000000 0
0.000000 0.000000 0
0.000000 0.000000 0
0.000000 0.000000 0
0.000000 0.000000 0
0.000000 0.000000 0
0.000000 0.000000 0
0.000000 0.000000 0
0.000000 0.000000 0
0.000000 0.000000 0
0.000000 0.000000 0
0.000000 0.000000 0
0.000000 0.000000 0
0.000000 0.000000 0
0.000000 0.000000 0
0.000000 0.000000 0
0.000000 0.000000 0
0.000000 0.000000 0
0.000000 0.000000 0
0.000000 0.000000 0
0.000000 0.000000 0
0.000000 0.000000 0
0.000000 0.000000 0
0.000000 0.000000 0
0.000000 0.000000 0
0.000000 0.000000 0
0.000000 0.000000 0
0.000000 0.000000 0
0.000000 0.000000 0
0.000000 0.000000 0
0.000000 0.000000 0
0.000000 0.000000 0
0.000000 0.000000 0
0.000000 0.000000 0
0.000000 0.000000 0
0.000000 0.000000 0
0.000000 0.000000 0
0.000000 0.000000 0
0.000000 0.000000 0
0.000000 0.000000 0
0.000000 0.000000 0
0.000000 0.000000 0
0.000000 0.000000 0
0.000000 0.000000 0
0.000000 0.000000 0
0.000000 0.000000 0
0.000041 0.000003 0
0.000082 0.000006 0
0.000122 0.000009 0
0.000163 0.000012 0
0.000203 0.000015 0
0.000244 0.000018 0
0.000284 0.000021 0
0.000325 0.000024 0
0.000365 0.000026 0
0.000404 0.000029 0
0.000444 0.000031 0
0.000484 0.000033 0
0.000523 0.000035 0
0.000562 0.000037 0
0.000600 0.000039 0
0.000638 0.000040 0
0.000675 0.000042 0
0.000712 0.000043 0
0.000748 0.000044 0
0.000784 0.000045 0
0.000818 0.000045 0
0.000851 0.000046 0
0.000883 0.000046 0
0.000913 0.000046 0
0.000942 0.000046 0
0.000968 0.000046 0
0.000992 0.000046 0
0.001014 0.000046 0
0.001032 0.000045 0
0.001047 0.000045 0
0.001058 0.000044 0
0.001064 0.000043 0
0.001066 0.000042 0
0.001062 0.000041 0
0.001052 0.000039 0
0.001035 0.000038 0
0.001011 0.000036 0
0.000980 0.000034 0
0.000940 0.000032 0
0.000892 0.000030 0
0.000836 0.000027 0
0.000771 0.000025 0
0.000697 0.000022 0
0.000615 0.000019 0
0.000526 0.000016 0
0.000429 0.000012 0
0.000327 0.000009 0
0.000221 0.000005 0
0.000111 0.000002 0
0.000000 0.000000 0
0.000000 0.000000 0
0.000082 0.000006 0
0.000163 0.000013 0
0.000245 0.000019 0
0.000326 0.000025 0
0.000407 0.000031 0
0.000489 0.000037 0
0.000569 0.000043 0
0.000650 0.000048 0
0.000730 0.000053 0
0.000810 0.000058 0
0.000890 0.000062 0
0.000969 0.000067 0
0.001047 0.000071 0
0.001125 0.000074 0
0.001202 0.000078 0
0.001278 0.000081 0
0.001353 0.000083 0
0.001427 0.000086 0
0.001500 0.000088 0
0.001570 0.000089 0
0.001639 0.000091 0
0.001706 0.000092 0
0.001770 0.000093 0
0.001831 0.000093 0
0.001888 0.000093 0
0.001941 0.000093 0
0.001990 0.000093 0
0.002033 0.000092 0
0.002070 0.000091 0
0.002100 0.000090 0
0.002123 0.000088 0
0.002136 0.000086 0
0.002140 0.000084 0
0.002132 0.000082 0
0.002113 0.000079 0
0.002080 0.000076 0
0.002032 0.000072 0
0.001970 0.000068 0
0.001891 0.000064 0
0.001795 0.000060 0
0.001682 0.000055 0
0.001552 0.000049 0
0.001404 0.000044 0
0.001239 0.000038 0
0.001059 0.000031 0
0.000866 0.000025 0
0.000660 0.000018 0
0.000445 0.000011 0
0.000224 0.000004 0
0.000000 0.000000 0
0.000000 0.000000 0
0.000123 0.000010 0
0.000246 0.000019 0
0.000368 0.000029 0
0.000491 0.000038 0
0.000613 0.000047 0
0.000735 0.000056 0
0.000856 0.000064 0
0.000978 0.000072 0
0.001099 0.000080 0
0.001219 0.000087 0
0.001338 0.000094 0
0.001457 0.000101 0
0.001575 0.000107 0
0.001693 0.000112 0
0.001809 0.000117 0
0.001923 0.000122 0
0.002036 0.000126 0
0.002148 0.000129 0
0.002257 0.000132 0
0.002364 0.000135 0
0.002467 0.000137 0
0.002568 0.000139 0
0.002665 0.000140 0
0.002757 0.000140 0
0.002844 0.000141 0
0.002924 0.000141 0
0.002998 0.000140 0
0.003064 0.000139 0
0.003121 0.000137 0
0.003167 0.000135 0
0.003202 0.000133 0
0.003224 0.000130 0
0.003230 0.000127 0
0.003220 0.000123 0
0.003192 0.000119 0
0.003144 0.000115 0
0.003074 0.000109 0
0.002981 0.000104 0
0.002863 0.000097 0
0.002720 0.000090 0
0.002550 0.000083 0
0.002353 0.000075 0
0.002130 0.000066 0
0.001881 0.000057 0
0.001609 0.000047 0
0.001315 0.000037 0
0.001003 0.000027 0
0.000677 0.000016 0
0.000341 0.000005 0
0.000000 0.000000 0
0.000000 0.000000 0
0.000164 0.000013 0
0.000329 0.000026 0
0.000493 0.000039 0
0.000657 0.000051 0
0.000820 0.000063 0
0.000984 0.000075 0
0.001146 0.000086 0
0.001309 0.000097 0
0.001471 0.000108 0
0.001632 0.000118 0
0.001792 0.000127 0
0.001951 0.000136 0
0.002109 0.000144 0
0.002266 0.000151 0
0.002422 0.000158 0
0.002576 0.000164 0
0.002727 0.000169 0
0.002877 0.000174 0
0.003023 0.000178 0
0.003167 0.000182 0
0.003306 0.000184 0
0.003442 0.000186 0
0.003572 0.000188 0
0.003696 0.000189 0
0.003814 0.000189 0
0.003923 0.000189 0
0.004023 0.000188 0
0.004113 0.000187 0
0.004191 0.000185 0
0.004255 0.000182 0
0.004303 0.000179 0
0.004334 0.000176 0
0.004346 0.000171 0
0.004335 0.000166 0
0.004299 0.000161 0
0.004237 0.000154 0
0.004146 0.000147 0
0.004023 0.000140 0
0.003867 0.000131 0
0.003676 0.000122 0
0.003449 0.000112 0
0.003185 0.000101 0
0.002885 0.000089 0
0.002550 0.000077 0
0.002182 0.000064 0
0.001785 0.000051 0
0.001362 0.000036 0
0.000920 0.000022 0
0.000463 0.000007 0
0.000000 0.000000 0
0.000000 0.000000 0
0.000207 0.000016 0
0.000413 0.000033 0
0.000619 0.000049 0
0.000825 0.000065 0
0.001031 0.000080 0
0.001236 0.000095 0
0.001440 0.000110 0
0.001644 0.000123 0
0.001848 0.000137 0
0.002050 0.000149 0
0.002252 0.000161 0
0.002452 0.000172 0
0.002651 0.000182 0
0.002849 0.000191 0
0.003044 0.000200 0
0.003238 0.000207 0
0.003429 0.000214 0
0.003617 0.000220 0
0.003802 0.000225 0
0.003983 0.000229 0
0.004160 0.000233 0
0.004331 0.000236 0
0.004496 0.000238 0
0.004653 0.000239 0
0.004803 0.000239 0
0.004942 0.000239 0
0.005071 0.000238 0
0.005186 0.000236 0
0.005286 0.000234 0
0.005370 0.000231 0
0.005434 0.000227 0
0.005476 0.000222 0
0.005494 0.000217 0
0.005484 0.000211 0
0.005444 0.000204 0
0.005369 0.000196 0
0.005258 0.000187 0
0.005107 0.000177 0
0.004913 0.000167 0
0.004675 0.000155 0
0.004390 0.000142 0
0.004058 0.000129 0
0.003679 0.000114 0
0.003254 0.000098 0
0.002787 0.000082 0
0.002281 0.000064 0
0.001742 0.000047 0
0.001176 0.000028 0
0.000593 0.000009 0
0.000000 0.000000 0
0.000000 0.000000 0
0.000249 0.000020 0
0.000499 0.000040 0
0.000748 0.000060 0
0.000996 0.000079 0
0.001245 0.000098 0
0.001492 0.000116 0
0.001740 0.000134 0
0.001986 0.000150 0
0.002232 0.000167 0
0.002476 0.000182 0
0.002720 0.000196 0
0.002962 0.000209 0
0.003203 0.000222 0
0.003442 0.000233 0
0.003679 0.000243 0
0.003913 0.000252 0
0.004145 0.000261 0
0.004373 0.000268 0
0.004597 0.000274 0
0.004817 0.000279 0
0.005032 0.000283 0
0.005240 0.000287 0
0.005441 0.000289 0
0.005633 0.000290 0
0.005816 0.000291 0
0.005988 0.000291 0
0.006146 0.000289 0
0.006289 0.000287 0
0.006414 0.000284 0
0.006519 0.000281 0
0.006601 0.000276 0
0.006657 0.000271 0
0.006684 0.000264 0
0.006678 0.000257 0
0.006634 0.000248 0
0.006550 0.000239 0
0.006420 0.000228 0
0.006243 0.000217 0
0.006012 0.000204 0
0.005727 0.000190 0
0.005384 0.000174 0
0.004982 0.000158 0
0.004521 0.000140 0
0.004004 0.000121 0
0.003432 0.000100 0
0.002811 0.000079 0
0.002148 0.000057 0
0.001451 0.000035 0
0.000732 0.000012 0
0.000000 0.000000 0
0.000000 0.000000 0
0.000293 0.000024 0
0.000586 0.000047 0
0.000879 0.000071 0
0.001171 0.000094 0
0.001463 0.000116 0
0.001755 0.000138 0
0.002045 0.000159 0
0.002335 0.000179 0
0.002624 0.000198 0
0.002912 0.000216 0
0.003198 0.000233 0
0.003483 0.000249 0
0.003767 0.000263 0
0.004048 0.000277 0
0.004327 0.000289 0
0.004604 0.000300 0
0.004877 0.000309 0
0.005147 0.000318 0
0.005412 0.000325 0
0.005672 0.000331 0
0.005926 0.000336 0
0.006173 0.000340 0
0.006412 0.000343 0
0.006641 0.000344 0
0.006859 0.000345 0
0.007065 0.000344 0
0.007255 0.000343 0
0.007427 0.000341 0
0.007580 0.000337 0
0.007709 0.000333 0
0.007812 0.000327 0
0.007885 0.000321 0
0.007924 0.000314 0
0.007924 0.000305 0
0.007880 0.000295 0
0.007788 0.000284 0
0.007644 0.000272 0
0.007441 0.000258 0
0.007175 0.000243 0
0.006844 0.000226 0
0.006442 0.000208 0
0.005969 0.000188 0
0.005424 0.000167 0
0.004808 0.000145 0
0.004126 0.000120 0
0.003382 0.000095 0
0.002587 0.000069 0
0.001749 0.000042 0
0.000882 0.000014 0
0.000000 0.000000 0
0.000000 0.000000 0
0.000338 0.000028 0
0.000676 0.000055 0
0.001014 0.000083 0
0.001351 0.000110 0
0.001687 0.000136 0
0.002023 0.000161 0
0.002359 0.000186 0
0.002693 0.000209 0
0.003026 0.000231 0
0.003358 0.000252 0
0.003689 0.000272 0
0.004018 0.000290 0
0.004346 0.000307 0
0.004671 0.000323 0
0.004994 0.000337 0
0.005314 0.000349 0
0.005630 0.000360 0
0.005942 0.000370 0
0.006250 0.000378 0
0.006552 0.000385 0
0.006847 0.000391 0
0.007135 0.000395 0
0.007413 0.000399 0
0.007681 0.000400 0
0.007937 0.000401 0
0.008179 0.000401 0
0.008403 0.000399 0
0.008609 0.000396 0
0.008791 0.000393 0
0.008948 0.000388 0
0.009075 0.000381 0
0.009168 0.000374 0
0.009222 0.000365 0
0.009231 0.000356 0
0.009191 0.000344 0
0.009095 0.000332 0
0.008938 0.000318 0
0.008713 0.000302 0
0.008414 0.000284 0
0.008036 0.000265 0
0.007576 0.000244 0
0.007030 0.000221 0
0.006397 0.000197 0
0.005679 0.000170 0
0.004879 0.000142 0
0.004004 0.000112 0
0.003065 0.000081 0
0.002074 0.000049 0
0.001046 0.000016 0
0.000000 0.000000 0
0.000000 0.000000 0
0.000384 0.000032 0
0.000768 0.000064 0
0.001152 0.000096 0
0.001535 0.000127 0
0.001918 0.000157 0
0.002300 0.000186 0
0.002681 0.000214 0
0.003061 0.000241 0
0.003440 0.000266 0
0.003818 0.000291 0
0.004195 0.000313 0
0.004569 0.000334 0
0.004942 0.000353 0
0.005313 0.000371 0
0.005681 0.000387 0
0.006045 0.000402 0
0.006406 0.000414 0
0.006763 0.000425 0
0.007115 0.000435 0
0.007461 0.000443 0
0.007799 0.000449 0
0.008130 0.000454 0
0.008450 0.000458 0
0.008760 0.000460 0
0.009055 0.000460 0
0.009336 0.000460 0
0.009598 0.000458 0
0.009839 0.000455 0
0.010055 0.000451 0
0.010242 0.000445 0
0.010397 0.000438 0
0.010513 0.000430 0
0.010586 0.000420 0
0.010610 0.000409 0
0.010577 0.000396 0
0.010481 0.000382 0
0.010314 0.000366 0
0.010069 0.000348 0
0.009739 0.000329 0
0.009318 0.000307 0
0.008798 0.000283 0
0.008178 0.000257 0
0.007453 0.000228 0
0.006626 0.000198 0
0.005701 0.000165 0
0.004685 0.000131 0
0.003589 0.000094 0
0.002431 0.000057 0
0.001227 0.000019 0
0.000000 0.000000 0
0.000000 0.000000 0
0.000432 0.000037 0
0.000864 0.000073 0
0.001295 0.000109 0
0.001726 0.000145 0
0.002156 0.000179 0
0.002585 0.000212 0
0.003014 0.000245 0
0.003442 0.000275 0
0.003868 0.000304 0
0.004293 0.000332 0
0.004717 0.000357 0
0.005139 0.000381 0
0.005559 0.000403 0
0.005976 0.000423 0
0.006391 0.000441 0
0.006802 0.000457 0
0.007210 0.000472 0
0.007613 0.000484 0
0.008011 0.000495 0
0.008403 0.000503 0
0.008787 0.000511 0
0.009162 0.000516 0
0.009528 0.000520 0
0.009881 0.000522 0
0.010219 0.000523 0
0.010542 0.000522 0
0.010844 0.000520 0
0.011124 0.000517 0
0.011377 0.000512 0
0.011599 0.000506 0
0.011785 0.000498 0
0.011929 0.000489 0
0.012026 0.000478 0
0.012068 0.000466 0
0.012046 0.000452 0
0.011954 0.000436 0
0.011783 0.000418 0
0.011522 0.000398 0
0.011164 0.000376 0
0.010700 0.000351 0
0.010122 0.000324 0
0.009425 0.000295 0
0.008606 0.000262 0
0.007664 0.000227 0
0.006604 0.000190 0
0.005435 0.000151 0
0.004169 0.000109 0
0.002825 0.000066 0
0.001427 0.000022 0
0.000000 0.000000 0
0.000000 0.000000 0
0.000481 0.000042 0
0.000962 0.000083 0
0.001443 0.000124 0
0.001923 0.000164 0
0.002403 0.000203 0
0.002881 0.000241 0
0.003359 0.000277 0
0.003836 0.000312 0
0.004311 0.000345 0
0.004786 0.000376 0
0.005258 0.000405 0
0.005729 0.000431 0
0.006198 0.000456 0
0.006665 0.000478 0
0.007128 0.000499 0
0.007589 0.000517 0
0.008045 0.000533 0
0.008497 0.000546 0
0.008943 0.000558 0
0.009383 0.000568 0
0.009815 0.000576 0
0.010238 0.000582 0
0.010651 0.000586 0
0.011050 0.000588 0
0.011435 0.000589 0
0.011802 0.000588 0
0.012149 0.000586 0
0.012471 0.000582 0
0.012765 0.000577 0
0.013026 0.000570 0
0.013248 0.000561 0
0.013425 0.000551 0
0.013550 0.000539 0
0.013615 0.000526 0
0.013610 0.000510 0
0.013528 0.000493 0
0.013356 0.000473 0
0.013084 0.000451 0
0.012701 0.000426 0
0.012197 0.000399 0
0.011562 0.000369 0
0.010788 0.000336 0
0.009869 0.000299 0
0.008806 0.000260 0
0.007602 0.000218 0
0.006265 0.000172 0
0.004812 0.000125 0
0.003265 0.000076 0
0.001650 0.000025 0
0.000000 0.000000 0
0.000000 0.000000 0
0.000533 0.000047 0
0.001065 0.000094 0
0.001597 0.000140 0
0.002128 0.000186 0
0.002659 0.000230 0
0.003189 0.000272 0
0.003718 0.000313 0
0.004246 0.000352 0
0.004772 0.000389 0
0.005298 0.000424 0
0.005821 0.000456 0
0.006344 0.000486 0
0.006864 0.000513 0
0.007381 0.000538 0
0.007896 0.000561 0
0.008408 0.000580 0
0.008915 0.000598 0
0.009418 0.000613 0
0.009915 0.000626 0
0.010406 0.000637 0
0.010889 0.000645 0
0.011363 0.000652 0
0.011825 0.000656 0
0.012275 0.000659 0
0.012709 0.000660 0
0.013124 0.000659 0
0.013519 0.000656 0
0.013888 0.000651 0
0.014227 0.000645 0
0.014530 0.000638 0
0.014793 0.000628 0
0.015008 0.000617 0
0.015167 0.000604 0
0.015260 0.000589 0
0.015279 0.000572 0
0.015211 0.000553 0
0.015045 0.000532 0
0.014767 0.000508 0
0.014364 0.000481 0
0.013823 0.000450 0
0.013132 0.000417 0
0.012280 0.000380 0
0.011259 0.000339 0
0.010068 0.000295 0
0.008708 0.000247 0
0.007189 0.000196 0
0.005530 0.000143 0
0.003756 0.000087 0
0.001900 0.000029 0
0.000000 0.000000 0
0.000000 0.000000 0
0.000586 0.000053 0
0.001172 0.000106 0
0.001757 0.000158 0
0.002342 0.000209 0
0.002926 0.000258 0
0.003509 0.000306 0
0.004092 0.000352 0
0.004673 0.000396 0
0.005253 0.000437 0
0.005832 0.000475 0
0.006409 0.000511 0
0.006985 0.000544 0
0.007559 0.000575 0
0.008130 0.000602 0
0.008698 0.000627 0
0.009264 0.000649 0
0.009825 0.000668 0
0.010382 0.000685 0
0.010933 0.000699 0
0.011477 0.000710 0
0.012014 0.000720 0
0.012541 0.000726 0
0.013057 0.000731 0
0.013560 0.000734 0
0.014046 0.000734 0
0.014515 0.000733 0
0.014961 0.000730 0
0.015380 0.000725 0
0.015769 0.000718 0
0.016121 0.000710 0
0.016430 0.000699 0
0.016688 0.000687 0
0.016886 0.000673 0
0.017015 0.000657 0
0.017063 0.000639 0
0.017016 0.000618 0
0.016862 0.000595 0
0.016584 0.000568 0
0.016167 0.000539 0
0.015594 0.000506 0
0.014849 0.000469 0
0.013919 0.000428 0
0.012793 0.000383 0
0.011466 0.000334 0
0.009939 0.000280 0
0.008222 0.000223 0
0.006335 0.000162 0
0.004308 0.000098 0
0.002181 0.000033 0
0.000000 0.000000 0
0.000000 0.000000 0
0.000642 0.000060 0
0.001284 0.000119 0
0.001925 0.000177 0
0.002566 0.000234 0
0.003206 0.000290 0
0.003845 0.000343 0
0.004483 0.000394 0
0.005121 0.000443 0
0.005757 0.000489 0
0.006391 0.000532 0
0.007025 0.000572 0
0.007657 0.000608 0
0.008286 0.000642 0
0.008914 0.000672 0
0.009539 0.000699 0
0.010161 0.000723 0
0.010779 0.000744 0
0.011392 0.000762 0
0.012000 0.000777 0
0.012602 0.000789 0
0.013195 0.000799 0
0.013779 0.000806 0
0.014352 0.000811 0
0.014912 0.000814 0
0.015455 0.000814 0
0.015980 0.000812 0
0.016482 0.000809 0
0.016957 0.000803 0
0.017400 0.000796 0
0.017806 0.000786 0
0.018166 0.000775 0
0.018473 0.000762 0
0.018718 0.000747 0
0.018889 0.000729 0
0.018973 0.000709 0
0.018955 0.000687 0
0.018820 0.000661 0
0.018550 0.000633 0
0.018125 0.000601 0
0.017525 0.000565 0
0.016730 0.000525 0
0.015723 0.000480 0
0.014489 0.000430 0
0.013019 0.000376 0
0.011313 0.000316 0
0.009379 0.000252 0
0.007240 0.000183 0
0.004931 0.000111 0
0.002498 0.000037 0
0.000000 0.000000 0
0.000000 0.000000 0
0.000701 0.000067 0
0.001402 0.000133 0
0.002102 0.000199 0
0.002801 0.000263 0
0.003500 0.000325 0
0.004197 0.000384 0
0.004894 0.000441 0
0.005590 0.000495 0
0.006285 0.000546 0
0.006979 0.000593 0
0.007671 0.000637 0
0.008362 0.000678 0
0.009051 0.000714 0
0.009738 0.000748 0
0.010423 0.000777 0
0.011104 0.000803 0
0.011782 0.000826 0
0.012456 0.000845 0
0.013124 0.000861 0
0.013786 0.000874 0
0.014440 0.000884 0
0.015085 0.000892 0
0.015718 0.000897 0
0.016339 0.000899 0
0.016943 0.000899 0
0.017529 0.000897 0
0.018091 0.000893 0
0.018627 0.000886 0
0.019130 0.000878 0
0.019594 0.000868 0
0.020012 0.000855 0
0.020375 0.000841 0
0.020672 0.000824 0
0.020892 0.000806 0
0.021020 0.000784 0
0.021040 0.000760 0
0.020934 0.000733 0
0.020679 0.000702 0
0.020254 0.000668 0
0.019634 0.000629 0
0.018795 0.000585 0
0.017714 0.000536 0
0.016370 0.000482 0
0.014751 0.000421 0
0.012851 0.000355 0
0.010680 0.000283 0
0.008262 0.000207 0
0.005636 0.000126 0
0.002859 0.000042 0
0.000000 0.000000 0
0.000000 0.000000 0
0.000763 0.000075 0
0.001525 0.000149 0
0.002287 0.000222 0
0.003048 0.000294 0
0.003809 0.000363 0
0.004568 0.000429 0
0.005327 0.000493 0
0.006085 0.000553 0
0.006842 0.000609 0
0.007598 0.000661 0
0.008352 0.000710 0
0.009106 0.000754 0
0.009857 0.000794 0
0.010607 0.000830 0
0.011355 0.000862 0
0.012100 0.000890 0
0.012841 0.000914 0
0.013578 0.000935 0
0.014310 0.000952 0
0.015036 0.000965 0
0.015755 0.000976 0
0.016465 0.000983 0
0.017163 0.000988 0
0.017849 0.000990 0
0.018519 0.000990 0
0.019170 0.000987 0
0.019798 0.000982 0
0.020399 0.000975 0
0.020967 0.000965 0
0.021496 0.000954 0
0.021978 0.000941 0
0.022403 0.000925 0
0.022761 0.000907 0
0.023038 0.000887 0
0.023219 0.000864 0
0.023285 0.000838 0
0.023216 0.000809 0
0.022987 0.000776 0
0.022571 0.000739 0
0.021940 0.000697 0
0.021063 0.000650 0
0.019911 0.000597 0
0.018458 0.000538 0
0.016683 0.000471 0
0.014578 0.000398 0
0.012148 0.000318 0
0.009419 0.000232 0
0.006437 0.000142 0
0.003269 0.000048 0
0.000000 0.000000 0
0.000000 0.000000 0
0.000828 0.000084 0
0.001656 0.000167 0
0.002483 0.000249 0
0.003310 0.000328 0
0.004135 0.000406 0
0.004960 0.000479 0
0.005784 0.000550 0
0.006608 0.000616 0
0.007430 0.000678 0
0.008252 0.000736 0
0.009072 0.000789 0
0.009892 0.000837 0
0.010710 0.000881 0
0.011526 0.000920 0
0.012341 0.000954 0
0.013153 0.000984 0
0.013962 0.001010 0
0.014767 0.001032 0
0.015567 0.001050 0
0.016361 0.001064 0
0.017149 0.001074 0
0.017927 0.001082 0
0.018696 0.001086 0
0.019451 0.001088 0
0.020191 0.001087 0
0.020912 0.001083 0
0.021611 0.001077 0
0.022283 0.001069 0
0.022922 0.001058 0
0.023522 0.001046 0
0.024075 0.001031 0
0.024570 0.001014 0
0.024996 0.000995 0
0.025338 0.000973 0
0.025581 0.000949 0
0.025704 0.000921 0
0.025682 0.000890 0
0.025489 0.000855 0
0.025094 0.000816 0
0.024463 0.000771 0
0.023557 0.000720 0
0.022341 0.000663 0
0.020779 0.000598 0
0.018844 0.000526 0
0.016519 0.000445 0
0.013807 0.000357 0
0.010733 0.000261 0
0.007349 0.000159 0
0.003737 0.000054 0
0.000000 0.000000 0
0.000000 0.000000 0
0.000898 0.000094 0
0.001794 0.000187 0
0.002691 0.000278 0
0.003586 0.000367 0
0.004481 0.000453 0
0.005375 0.000535 0
0.006269 0.000613 0
0.007161 0.000687 0
0.008054 0.000755 0
0.008945 0.000818 0
0.009836 0.000876 0
0.010726 0.000929 0
0.011614 0.000976 0
0.012502 0.001018 0
0.013387 0.001055 0
0.014271 0.001087 0
0.015152 0.001115 0
0.016029 0.001137 0
0.016902 0.001156 0
0.017769 0.001170 0
0.018630 0.001181 0
0.019483 0.001188 0
0.020325 0.001192 0
0.021156 0.001193 0
0.021971 0.001191 0
0.022768 0.001186 0
0.023543 0.001179 0
0.024292 0.001169 0
0.025008 0.001157 0
0.025685 0.001144 0
0.026315 0.001127 0
0.026888 0.001109 0
0.027390 0.001088 0
0.027807 0.001065 0
0.028122 0.001039 0
0.028311 0.001009 0
0.028349 0.000976 0
0.028205 0.000939 0
0.027844 0.000897 0
0.027223 0.000850 0
0.026301 0.000796 0
0.025029 0.000734 0
0.023362 0.000664 0
0.021264 0.000585 0
0.018707 0.000497 0
0.015687 0.000399 0
0.012229 0.000293 0
0.008393 0.000179 0
0.004275 0.000060 0
0.000000 0.000000 0
0.000000 0.000000 0
0.000971 0.000105 0
0.001942 0.000209 0
0.002911 0.000311 0
0.003880 0.000411 0
0.004849 0.000506 0
0.005817 0.000598 0
0.006784 0.000684 0
0.007750 0.000765 0
0.008717 0.000841 0
0.009682 0.000910 0
0.010648 0.000973 0
0.011613 0.001030 0
0.012577 0.001082 0
0.013540 0.001127 0
0.014502 0.001166 0
0.015462 0.001200 0
0.016419 0.001228 0
0.017374 0.001252 0
0.018325 0.001271 0
0.019271 0.001285 0
0.020210 0.001295 0
0.021142 0.001302 0
0.022064 0.001305 0
0.022974 0.001305 0
0.023871 0.001302 0
0.024749 0.001296 0
0.025607 0.001287 0