# vtk DataFile Version 2.0
generated by CFD-lab course output (written by Tobias Neckel) 
ASCII

DATASET STRUCTURED_GRID
DIMENSIONS  51 51 1 
POINTS 2601 float

0.000000 0.000000 0
0.020000 0.000000 0
0.040000 0.000000 0
0.060000 0.000000 0
0.080000 0.000000 0
0.100000 0.000000 0
0.120000 0.000000 0
0.140000 0.000000 0
0.160000 0.000000 0
0.180000 0.000000 0
0.200000 0.000000 0
0.220000 0.000000 0
0.240000 0.000000 0
0.260000 0.000000 0
0.280000 0.000000 0
0.300000 0.000000 0
0.320000 0.000000 0
0.340000 0.000000 0
0.360000 0.000000 0
0.380000 0.000000 0
0.400000 0.000000 0
0.420000 0.000000 0
0.440000 0.000000 0
0.460000 0.000000 0
0.480000 0.000000 0
0.500000 0.000000 0
0.520000 0.000000 0
0.540000 0.000000 0
0.560000 0.000000 0
0.580000 0.000000 0
0.600000 0.000000 0
0.620000 0.000000 0
0.640000 0.000000 0
0.660000 0.000000 0
0.680000 0.000000 0
0.700000 0.000000 0
0.720000 0.000000 0
0.740000 0.000000 0
0.760000 0.000000 0
0.780000 0.000000 0
0.800000 0.000000 0
0.820000 0.000000 0
0.840000 0.000000 0
0.860000 0.000000 0
0.880000 0.000000 0
0.900000 0.000000 0
0.920000 0.000000 0
0.940000 0.000000 0
0.960000 0.000000 0
0.980000 0.000000 0
1.000000 0.000000 0
0.000000 0.020000 0
0.020000 0.020000 0
0.040000 0.020000 0
0.060000 0.020000 0
0.080000 0.020000 0
0.100000 0.020000 0
0.120000 0.020000 0
0.140000 0.020000 0
0.160000 0.020000 0
0.180000 0.020000 0
0.200000 0.020000 0
0.220000 0.020000 0
0.240000 0.020000 0
0.260000 0.020000 0
0.280000 0.020000 0
0.300000 0.020000 0
0.320000 0.020000 0
0.340000 0.020000 0
0.360000 0.020000 0
0.380000 0.020000 0
0.400000 0.020000 0
0.420000 0.020000 0
0.440000 0.020000 0
0.460000 0.020000 0
0.480000 0.020000 0
0.500000 0.020000 0
0.520000 0.020000 0
0.540000 0.020000 0
0.560000 0.020000 0
0.580000 0.020000 0
0.600000 0.020000 0
0.620000 0.020000 0
0.640000 0.020000 0
0.660000 0.020000 0
0.680000 0.020000 0
0.700000 0.020000 0
0.720000 0.020000 0
0.740000 0.020000 0
0.760000 0.020000 0
0.780000 0.020000 0
0.800000 0.020000 0
0.820000 0.020000 0
0.840000 0.020000 0
0.860000 0.020000 0
0.880000 0.020000 0
0.900000 0.020000 0
0.920000 0.020000 0
0.940000 0.020000 0
0.960000 0.020000 0
0.980000 0.020000 0
1.000000 0.020000 0
0.000000 0.040000 0
0.020000 0.040000 0
0.040000 0.040000 0
0.060000 0.040000 0
0.080000 0.040000 0
0.100000 0.040000 0
0.120000 0.040000 0
0.140000 0.040000 0
0.160000 0.040000 0
0.180000 0.040000 0
0.200000 0.040000 0
0.220000 0.040000 0
0.240000 0.040000 0
0.260000 0.040000 0
0.280000 0.040000 0
0.300000 0.040000 0
0.320000 0.040000 0
0.340000 0.040000 0
0.360000 0.040000 0
0.380000 0.040000 0
0.400000 0.040000 0
0.420000 0.040000 0
0.440000 0.040000 0
0.460000 0.040000 0
0.480000 0.040000 0
0.500000 0.040000 0
0.520000 0.040000 0
0.540000 0.040000 0
0.560000 0.040000 0
0.580000 0.040000 0
0.600000 0.040000 0
0.620000 0.040000 0
0.640000 0.040000 0
0.660000 0.040000 0
0.680000 0.040000 0
0.700000 0.040000 0
0.720000 0.040000 0
0.740000 0.040000 0
0.760000 0.040000 0
0.780000 0.040000 0
0.800000 0.040000 0
0.820000 0.040000 0
0.840000 0.040000 0
0.860000 0.040000 0
0.880000 0.040000 0
0.900000 0.040000 0
0.920000 0.040000 0
0.940000 0.040000 0
0.960000 0.040000 0
0.980000 0.040000 0
1.000000 0.040000 0
0.000000 0.060000 0
0.020000 0.060000 0
0.040000 0.060000 0
0.060000 0.060000 0
0.080000 0.060000 0
0.100000 0.060000 0
0.120000 0.060000 0
0.140000 0.060000 0
0.160000 0.060000 0
0.180000 0.060000 0
0.200000 0.060000 0
0.220000 0.060000 0
0.240000 0.060000 0
0.260000 0.060000 0
0.280000 0.060000 0
0.300000 0.060000 0
0.320000 0.060000 0
0.340000 0.060000 0
0.360000 0.060000 0
0.380000 0.060000 0
0.400000 0.060000 0
0.420000 0.060000 0
0.440000 0.060000 0
0.460000 0.060000 0
0.480000 0.060000 0
0.500000 0.060000 0
0.520000 0.060000 0
0.540000 0.060000 0
0.560000 0.060000 0
0.580000 0.060000 0
0.600000 0.060000 0
0.620000 0.060000 0
0.640000 0.060000 0
0.660000 0.060000 0
0.680000 0.060000 0
0.700000 0.060000 0
0.720000 0.060000 0
0.740000 0.060000 0
0.760000 0.060000 0
0.780000 0.060000 0
0.800000 0.060000 0
0.820000 0.060000 0
0.840000 0.060000 0
0.860000 0.060000 0
0.880000 0.060000 0
0.900000 0.060000 0
0.920000 0.060000 0
0.940000 0.060000 0
0.960000 0.060000 0
0.980000 0.060000 0
1.000000 0.060000 0
0.000000 0.080000 0
0.020000 0.080000 0
0.040000 0.080000 0
0.060000 0.080000 0
0.080000 0.080000 0
0.100000 0.080000 0
0.120000 0.080000 0
0.140000 0.080000 0
0.160000 0.080000 0
0.180000 0.080000 0
0.200000 0.080000 0
0.220000 0.080000 0
0.240000 0.080000 0
0.260000 0.080000 0
0.280000 0.080000 0
0.300000 0.080000 0
0.320000 0.080000 0
0.340000 0.080000 0
0.360000 0.080000 0
0.380000 0.080000 0
0.400000 0.080000 0
0.420000 0.080000 0
0.440000 0.080000 0
0.460000 0.080000 0
0.480000 0.080000 0
0.500000 0.080000 0
0.520000 0.080000 0
0.540000 0.080000 0
0.560000 0.080000 0
0.580000 0.080000 0
0.600000 0.080000 0
0.620000 0.080000 0
0.640000 0.080000 0
0.660000 0.080000 0
0.680000 0.080000 0
0.700000 0.080000 0
0.720000 0.080000 0
0.740000 0.080000 0
0.760000 0.080000 0
0.780000 0.080000 0
0.800000 0.080000 0
0.820000 0.080000 0
0.840000 0.080000 0
0.860000 0.080000 0
0.880000 0.080000 0
0.900000 0.080000 0
0.920000 0.080000 0
0.940000 0.080000 0
0.960000 0.080000 0
0.980000 0.080000 0
1.000000 0.080000 0
0.000000 0.100000 0
0.020000 0.100000 0
0.040000 0.100000 0
0.060000 0.100000 0
0.080000 0.100000 0
0.100000 0.100000 0
0.120000 0.100000 0
0.140000 0.100000 0
0.160000 0.100000 0
0.180000 0.100000 0
0.200000 0.100000 0
0.220000 0.100000 0
0.240000 0.100000 0
0.260000 0.100000 0
0.280000 0.100000 0
0.300000 0.100000 0
0.320000 0.100000 0
0.340000 0.100000 0
0.360000 0.100000 0
0.380000 0.100000 0
0.400000 0.100000 0
0.420000 0.100000 0
0.440000 0.100000 0
0.460000 0.100000 0
0.480000 0.100000 0
0.500000 0.100000 0
0.520000 0.100000 0
0.540000 0.100000 0
0.560000 0.100000 0
0.580000 0.100000 0
0.600000 0.100000 0
0.620000 0.100000 0
0.640000 0.100000 0
0.660000 0.100000 0
0.680000 0.100000 0
0.700000 0.100000 0
0.720000 0.100000 0
0.740000 0.100000 0
0.760000 0.100000 0
0.780000 0.100000 0
0.800000 0.100000 0
0.820000 0.100000 0
0.840000 0.100000 0
0.860000 0.100000 0
0.880000 0.100000 0
0.900000 0.100000 0
0.920000 0.100000 0
0.940000 0.100000 0
0.960000 0.100000 0
0.980000 0.100000 0
1.000000 0.100000 0
0.000000 0.120000 0
0.020000 0.120000 0
0.040000 0.120000 0
0.060000 0.120000 0
0.080000 0.120000 0
0.100000 0.120000 0
0.120000 0.120000 0
0.140000 0.120000 0
0.160000 0.120000 0
0.180000 0.120000 0
0.200000 0.120000 0
0.220000 0.120000 0
0.240000 0.120000 0
0.260000 0.120000 0
0.280000 0.120000 0
0.300000 0.120000 0
0.320000 0.120000 0
0.340000 0.120000 0
0.360000 0.120000 0
0.380000 0.120000 0
0.400000 0.120000 0
0.420000 0.120000 0
0.440000 0.120000 0
0.460000 0.120000 0
0.480000 0.120000 0
0.500000 0.120000 0
0.520000 0.120000 0
0.540000 0.120000 0
0.560000 0.120000 0
0.580000 0.120000 0
0.600000 0.120000 0
0.620000 0.120000 0
0.640000 0.120000 0
0.660000 0.120000 0
0.680000 0.120000 0
0.700000 0.120000 0
0.720000 0.120000 0
0.740000 0.120000 0
0.760000 0.120000 0
0.780000 0.120000 0
0.800000 0.120000 0
0.820000 0.120000 0
0.840000 0.120000 0
0.860000 0.120000 0
0.880000 0.120000 0
0.900000 0.120000 0
0.920000 0.120000 0
0.940000 0.120000 0
0.960000 0.120000 0
0.980000 0.120000 0
1.000000 0.120000 0
0.000000 0.140000 0
0.020000 0.140000 0
0.040000 0.140000 0
0.060000 0.140000 0
0.080000 0.140000 0
0.100000 0.140000 0
0.120000 0.140000 0
0.140000 0.140000 0
0.160000 0.140000 0
0.180000 0.140000 0
0.200000 0.140000 0
0.220000 0.140000 0
0.240000 0.140000 0
0.260000 0.140000 0
0.280000 0.140000 0
0.300000 0.140000 0
0.320000 0.140000 0
0.340000 0.140000 0
0.360000 0.140000 0
0.380000 0.140000 0
0.400000 0.140000 0
0.420000 0.140000 0
0.440000 0.140000 0
0.460000 0.140000 0
0.480000 0.140000 0
0.500000 0.140000 0
0.520000 0.140000 0
0.540000 0.140000 0
0.560000 0.140000 0
0.580000 0.140000 0
0.600000 0.140000 0
0.620000 0.140000 0
0.640000 0.140000 0
0.660000 0.140000 0
0.680000 0.140000 0
0.700000 0.140000 0
0.720000 0.140000 0
0.740000 0.140000 0
0.760000 0.140000 0
0.780000 0.140000 0
0.800000 0.140000 0
0.820000 0.140000 0
0.840000 0.140000 0
0.860000 0.140000 0
0.880000 0.140000 0
0.900000 0.140000 0
0.920000 0.140000 0
0.940000 0.140000 0
0.960000 0.140000 0
0.980000 0.140000 0
1.000000 0.140000 0
0.000000 0.160000 0
0.020000 0.160000 0
0.040000 0.160000 0
0.060000 0.160000 0
0.080000 0.160000 0
0.100000 0.160000 0
0.120000 0.160000 0
0.140000 0.160000 0
0.160000 0.160000 0
0.180000 0.160000 0
0.200000 0.160000 0
0.220000 0.160000 0
0.240000 0.160000 0
0.260000 0.160000 0
0.280000 0.160000 0
0.300000 0.160000 0
0.320000 0.160000 0
0.340000 0.160000 0
0.360000 0.160000 0
0.380000 0.160000 0
0.400000 0.160000 0
0.420000 0.160000 0
0.440000 0.160000 0
0.460000 0.160000 0
0.480000 0.160000 0
0.500000 0.160000 0
0.520000 0.160000 0
0.540000 0.160000 0
0.560000 0.160000 0
0.580000 0.160000 0
0.600000 0.160000 0
0.620000 0.160000 0
0.640000 0.160000 0
0.660000 0.160000 0
0.680000 0.160000 0
0.700000 0.160000 0
0.720000 0.160000 0
0.740000 0.160000 0
0.760000 0.160000 0
0.780000 0.160000 0
0.800000 0.160000 0
0.820000 0.160000 0
0.840000 0.160000 0
0.860000 0.160000 0
0.880000 0.160000 0
0.900000 0.160000 0
0.920000 0.160000 0
0.940000 0.160000 0
0.960000 0.160000 0
0.980000 0.160000 0
1.000000 0.160000 0
0.000000 0.180000 0
0.020000 0.180000 0
0.040000 0.180000 0
0.060000 0.180000 0
0.080000 0.180000 0
0.100000 0.180000 0
0.120000 0.180000 0
0.140000 0.180000 0
0.160000 0.180000 0
0.180000 0.180000 0
0.200000 0.180000 0
0.220000 0.180000 0
0.240000 0.180000 0
0.260000 0.180000 0
0.280000 0.180000 0
0.300000 0.180000 0
0.320000 0.180000 0
0.340000 0.180000 0
0.360000 0.180000 0
0.380000 0.180000 0
0.400000 0.180000 0
0.420000 0.180000 0
0.440000 0.180000 0
0.460000 0.180000 0
0.480000 0.180000 0
0.500000 0.180000 0
0.520000 0.180000 0
0.540000 0.180000 0
0.560000 0.180000 0
0.580000 0.180000 0
0.600000 0.180000 0
0.620000 0.180000 0
[...]
POINT_DATA 2601 

VECTORS velocity float
0.000000 0.000000 0
0.000000 0.000000 0
0.000000 0.000000 0
0.000000 0.000000 0
0.000000 0.000000 0
0.000000 0.000000 0
0.000000 0.000000 0
0.000000 0.000000 0
0.000000 0.000000 0
0.000000 0.000000 0
0.000000 0.000000 0
0.000000 0.000000 0
0.000000 0.000000 0
0.000000 0.000000 0
0.000000 0.000000 0
0.000000 0.000000 0
0.000000 0.000000 0
0.000000 0.000000 0
0.000000 0.000000 0
0.000000 0.000000 0
0.000000 0.000000 0
0.000000 0.000000 0
0.000000 0.000000 0
0.000000 0.000000 0
0.000000 0.000000 0
0.000000 0.000000 0
0.000000 0.000000 0
0.000000 0.000000 0
0.000000 0.000000 0
0.000000 0.000000 0
0.000000 0.000000 0
0.000000 0.000000 0
0.000000 0.000000 0
0.000000 0.000000 0
0.000000 0.000000 0
0.000000 0.000000 0
0.000000 0.000000 0
0.000000 0.000000 0
0.000000 0.000000 0
0.000000 0.000000 0
0.000000 0.000000 0
0.000000 0.000000 0
0.000000 0.000000 0
0.000000 0.000000 0
0.000000 0.000000 0
0.000000 0.000000 0
0.000000 0.000000 0
0.000000 0.000000 0
0.000000 0.000000 0
0.000000 0.000000 0
0.000000 0.000000 0
0.000000 0.000000 0
0.000046 0.000004 0
0.000093 0.000007 0
0.000139 0.000011 0
0.000185 0.000015 0
0.000232 0.000018 0
0.000278 0.000022 0
0.000324 0.000025 0
0.000370 0.000028 0
0.000415 0.000032 0
0.000460 0.000035 0
0.000506 0.000037 0
0.000550 0.000040 0
0.000595 0.000043 0
0.000639 0.000045 0
0.000683 0.000047 0
0.000726 0.000049 0
0.000769 0.000051 0
0.000810 0.000053 0
0.000852 0.000054 0
0.000892 0.000055 0
0.000931 0.000057 0
0.000969 0.000057 0
0.001005 0.000058 0
0.001040 0.000059 0
0.001072 0.000059 0
0.001103 0.000060 0
0.001130 0.000060 0
0.001155 0.000059 0
0.001177 0.000059 0
0.001194 0.000059 0
0.001207 0.000058 0
0.001215 0.000057 0
0.001218 0.000056 0
0.001214 0.000055 0
0.001203 0.000053 0
0.001185 0.000051 0
0.001159 0.000049 0
0.001124 0.000047 0
0.001079 0.000044 0
0.001025 0.000041 0
0.000961 0.000038 0
0.000887 0.000034 0
0.000803 0.000030 0
0.000709 0.000026 0
0.000606 0.000022 0
0.000496 0.000017 0
0.000378 0.000012 0
0.000255 0.000007 0
0.000129 0.000002 0
0.000000 0.000000 0
0.000000 0.000000 0
0.000093 0.000007 0
0.000186 0.000015 0
0.000279 0.000022 0
0.000371 0.000030 0
0.000464 0.000037 0
0.000556 0.000044 0
0.000648 0.000050 0
0.000739 0.000057 0
0.000831 0.000063 0
0.000922 0.000069 0
0.001012 0.000075 0
0.001102 0.000080 0
0.001191 0.000085 0
0.001279 0.000090 0
0.001367 0.000094 0
0.001453 0.000098 0
0.001538 0.000102 0
0.001622 0.000105 0
0.001705 0.000108 0
0.001785 0.000111 0
0.001863 0.000113 0
0.001939 0.000115 0
0.002012 0.000117 0
0.002082 0.000118 0
0.002147 0.000119 0
0.002209 0.000119 0
0.002264 0.000119 0
0.002314 0.000119 0
0.002358 0.000119 0
0.002393 0.000118 0
0.002420 0.000116 0
0.002436 0.000114 0
0.002442 0.000112 0
0.002435 0.000109 0
0.002414 0.000106 0
0.002379 0.000102 0
0.002327 0.000098 0
0.002257 0.000093 0
0.002168 0.000088 0
0.002060 0.000082 0
0.001932 0.000075 0
0.001784 0.000068 0
0.001615 0.000061 0
0.001427 0.000052 0
0.001221 0.000044 0
0.000998 0.000034 0
0.000761 0.000025 0
0.000514 0.000015 0
0.000259 0.000005 0
0.000000 0.000000 0
0.000000 0.000000 0
0.000140 0.000011 0
0.000279 0.000023 0
0.000418 0.000034 0
0.000557 0.000045 0
0.000696 0.000055 0
0.000835 0.000066 0
0.000973 0.000076 0
0.001110 0.000086 0
0.001247 0.000095 0
0.001384 0.000104 0
0.001520 0.000113 0
0.001654 0.000121 0
0.001788 0.000129 0
0.001921 0.000136 0
0.002053 0.000142 0
0.002183 0.000148 0
0.002311 0.000154 0
0.002437 0.000159 0
0.002561 0.000163 0
0.002682 0.000167 0
0.002800 0.000171 0
0.002915 0.000173 0
0.003025 0.000176 0
0.003130 0.000178 0
0.003229 0.000179 0
0.003321 0.000180 0
0.003406 0.000180 0
0.003482 0.000179 0
0.003548 0.000179 0
0.003603 0.000177 0
0.003644 0.000175 0
0.003670 0.000172 0
0.003680 0.000169 0
0.003671 0.000165 0
0.003642 0.000160 0
0.003590 0.000155 0
0.003513 0.000148 0
0.003409 0.000141 0
0.003277 0.000133 0
0.003116 0.000124 0
0.002924 0.000114 0
0.002700 0.000103 0
0.002446 0.000092 0
0.002162 0.000079 0
0.001851 0.000066 0
0.001514 0.000052 0
0.001155 0.000038 0
0.000780 0.000023 0
0.000393 0.000008 0
0.000000 0.000000 0
0.000000 0.000000 0
0.000186 0.000015 0
0.000373 0.000030 0
0.000559 0.000045 0
0.000744 0.000060 0
0.000930 0.000074 0
0.001115 0.000088 0
0.001299 0.000102 0
0.001483 0.000115 0
0.001666 0.000128 0
0.001848 0.000140 0
0.002030 0.000151 0
0.002210 0.000162 0
0.002389 0.000172 0
0.002566 0.000182 0
0.002742 0.000191 0
0.002916 0.000199 0
0.003088 0.000206 0
0.003257 0.000213 0
0.003423 0.000219 0
0.003585 0.000224 0
0.003744 0.000229 0
0.003897 0.000232 0
0.004045 0.000235 0
0.004186 0.000238 0
0.004320 0.000240 0
0.004445 0.000241 0
0.004560 0.000241 0
0.004663 0.000240 0
0.004753 0.000239 0
0.004828 0.000237 0
0.004886 0.000235 0
0.004923 0.000231 0
0.004939 0.000227 0
0.004930 0.000221 0
0.004893 0.000215 0
0.004826 0.000207 0
0.004726 0.000199 0
0.004590 0.000189 0
0.004416 0.000179 0
0.004201 0.000167 0
0.003945 0.000153 0
0.003647 0.000139 0
0.003306 0.000123 0
0.002924 0.000107 0
0.002504 0.000089 0
0.002049 0.000070 0
0.001565 0.000051 0
0.001057 0.000031 0
0.000533 0.000010 0
0.000000 0.000000 0
0.000000 0.000000 0
0.000233 0.000019 0
0.000467 0.000038 0
0.000700 0.000057 0
0.000932 0.000076 0
0.001165 0.000094 0
0.001396 0.000111 0
0.001628 0.000129 0
0.001858 0.000145 0
0.002087 0.000161 0
0.002316 0.000176 0
0.002543 0.000191 0
0.002769 0.000204 0
0.002994 0.000217 0
0.003217 0.000229 0
0.003437 0.000240 0
0.003656 0.000250 0
0.003871 0.000259 0
0.004084 0.000268 0
0.004292 0.000275 0
0.004497 0.000282 0
0.004696 0.000287 0
0.004890 0.000292 0
0.005076 0.000296 0
0.005255 0.000299 0
0.005425 0.000301 0
0.005583 0.000303 0
0.005730 0.000303 0
0.005862 0.000303 0
0.005978 0.000301 0
0.006075 0.000299 0
0.006151 0.000295 0
0.006202 0.000291 0
0.006226 0.000285 0
0.006218 0.000279 0
0.006177 0.000271 0
0.006097 0.000262 0
0.005976 0.000251 0
0.005809 0.000239 0
0.005594 0.000226 0
0.005327 0.000211 0
0.005007 0.000194 0
0.004632 0.000176 0
0.004203 0.000156 0
0.003721 0.000135 0
0.003189 0.000113 0
0.002611 0.000089 0
0.001995 0.000064 0
0.001348 0.000039 0
0.000680 0.000013 0
0.000000 0.000000 0
0.000000 0.000000 0
0.000281 0.000023 0
0.000562 0.000046 0
0.000842 0.000069 0
0.001122 0.000092 0
0.001402 0.000114 0
0.001681 0.000135 0
0.001959 0.000156 0
0.002236 0.000176 0
0.002513 0.000195 0
0.002788 0.000214 0
0.003062 0.000231 0
0.003334 0.000248 0
0.003605 0.000263 0
0.003873 0.000277 0
0.004139 0.000291 0
0.004403 0.000303 0
0.004663 0.000314 0
0.004920 0.000324 0
0.005172 0.000333 0
0.005419 0.000341 0
0.005661 0.000348 0
0.005896 0.000354 0
0.006122 0.000358 0
0.006340 0.000362 0
0.006547 0.000364 0
0.006741 0.000366 0
0.006921 0.000366 0
0.007084 0.000366 0
0.007227 0.000364 0
0.007349 0.000361 0
0.007445 0.000357 0
0.007512 0.000352 0
0.007547 0.000345 0
0.007544 0.000338 0
0.007501 0.000328 0
0.007411 0.000317 0
0.007270 0.000305 0
0.007075 0.000290 0
0.006820 0.000274 0
0.006502 0.000256 0
0.006118 0.000236 0
0.005667 0.000214 0
0.005147 0.000191 0
0.004562 0.000165 0
0.003913 0.000138 0
0.003207 0.000109 0
0.002452 0.000079 0
0.001658 0.000048 0
0.000836 0.000016 0
0.000000 0.000000 0
0.000000 0.000000 0
0.000329 0.000027 0
0.000658 0.000055 0
0.000986 0.000082 0
0.001314 0.000108 0
0.001642 0.000135 0
0.001968 0.000160 0
0.002294 0.000184 0
0.002619 0.000208 0
0.002943 0.000231 0
0.003265 0.000253 0
0.003586 0.000273 0
0.003906 0.000292 0
0.004223 0.000311 0
0.004538 0.000327 0
0.004850 0.000343 0
0.005160 0.000357 0
0.005466 0.000370 0
0.005768 0.000382 0
0.006065 0.000393 0
0.006356 0.000402 0
0.006641 0.000410 0
0.006918 0.000416 0
0.007186 0.000422 0
0.007444 0.000426 0
0.007690 0.000429 0
0.007921 0.000431 0
0.008137 0.000431 0
0.008333 0.000431 0
0.008507 0.000429 0
0.008655 0.000426 0
0.008775 0.000421 0
0.008861 0.000415 0
0.008910 0.000407 0
0.008915 0.000398 0
0.008872 0.000387 0
0.008776 0.000375 0
0.008620 0.000360 0
0.008398 0.000343 0
0.008106 0.000324 0
0.007738 0.000303 0
0.007291 0.000280 0
0.006761 0.000254 0
0.006149 0.000226 0
0.005456 0.000196 0
0.004685 0.000164 0
0.003844 0.000130 0
0.002941 0.000094 0
0.001990 0.000057 0
0.001004 0.000019 0
0.000000 0.000000 0
0.000000 0.000000 0
0.000378 0.000032 0
0.000755 0.000064 0
0.001132 0.000095 0
0.001509 0.000126 0
0.001885 0.000156 0
0.002260 0.000186 0
0.002634 0.000214 0
0.003007 0.000242 0
0.003379 0.000268 0
0.003750 0.000293 0
0.004119 0.000317 0
0.004486 0.000339 0
0.004851 0.000360 0
0.005213 0.000379 0
0.005573 0.000397 0
0.005930 0.000414 0
0.006282 0.000429 0
0.006630 0.000442 0
0.006973 0.000454 0
0.007310 0.000464 0
0.007640 0.000473 0
0.007961 0.000481 0
0.008272 0.000487 0
0.008572 0.000492 0
0.008859 0.000496 0
0.009130 0.000498 0
0.009383 0.000498 0
0.009615 0.000498 0
0.009822 0.000495 0
0.010001 0.000492 0
0.010147 0.000486 0
0.010256 0.000480 0
0.010322 0.000471 0
0.010339 0.000461 0
0.010301 0.000448 0
0.010201 0.000434 0
0.010032 0.000417 0
0.009788 0.000398 0
0.009461 0.000377 0
0.009044 0.000353 0
0.008534 0.000326 0
0.007926 0.000296 0
0.007219 0.000264 0
0.006414 0.000229 0
0.005515 0.000191 0
0.004530 0.000152 0
0.003469 0.000110 0
0.002348 0.000066 0
0.001185 0.000022 0
0.000000 0.000000 0
0.000000 0.000000 0
0.000427 0.000037 0
0.000854 0.000073 0
0.001281 0.000109 0
0.001707 0.000144 0
0.002132 0.000179 0
0.002557 0.000213 0
0.002980 0.000245 0
0.003402 0.000277 0
0.003824 0.000307 0
0.004243 0.000335 0
0.004661 0.000362 0
0.005077 0.000387 0
0.005491 0.000411 0
0.005902 0.000433 0
0.006310 0.000454 0
0.006714 0.000472 0
0.007115 0.000489 0
0.007511 0.000504 0
0.007901 0.000518 0
0.008285 0.000529 0
0.008661 0.000540 0
0.009028 0.000548 0
0.009384 0.000555 0
0.009729 0.000560 0
0.010058 0.000564 0
0.010371 0.000567 0
0.010665 0.000567 0
0.010935 0.000566 0
0.011178 0.000564 0
0.011391 0.000560 0
0.011567 0.000554 0
0.011702 0.000546 0
0.011790 0.000537 0
0.011823 0.000525 0
0.011794 0.000512 0
0.011695 0.000495 0
0.011518 0.000477 0
0.011254 0.000456 0
0.010895 0.000432 0
0.010433 0.000404 0
0.009861 0.000374 0
0.009174 0.000341 0
0.008369 0.000304 0
0.007447 0.000264 0
0.006412 0.000221 0
0.005273 0.000175 0
0.004043 0.000127 0
0.002739 0.000077 0
0.001383 0.000026 0
0.000000 0.000000 0
0.000000 0.000000 0
0.000478 0.000042 0
0.000955 0.000083 0
0.001433 0.000124 0
0.001909 0.000164 0
0.002385 0.000203 0
0.002860 0.000241 0
0.003333 0.000278 0
0.003806 0.000314 0
0.004277 0.000347 0
0.004747 0.000380 0
0.005215 0.000410 0
0.005681 0.000439 0
0.006144 0.000465 0
0.006605 0.000490 0
0.007063 0.000513 0
0.007517 0.000533 0
0.007967 0.000552 0
0.008412 0.000569 0
0.008852 0.000584 0
0.009284 0.000597 0
0.009708 0.000608 0
0.010123 0.000618 0
0.010527 0.000625 0
0.010918 0.000631 0
0.011293 0.000635 0
0.011651 0.000638 0
0.011987 0.000639 0
0.012299 0.000638 0
0.012582 0.000635 0
0.012832 0.000630 0
0.013043 0.000624 0
0.013209 0.000616 0
0.013322 0.000605 0
0.013376 0.000592 0
0.013361 0.000577 0
0.013268 0.000560 0
0.013088 0.000539 0
0.012809 0.000516 0
0.012422 0.000489 0
0.011916 0.000459 0
0.011283 0.000425 0
0.010517 0.000387 0
0.009611 0.000346 0
0.008567 0.000301 0
0.007389 0.000252 0
0.006085 0.000200 0
0.004671 0.000145 0
0.003167 0.000088 0
0.001600 0.000029 0
0.000000 0.000000 0
0.000000 0.000000 0
0.000530 0.000047 0
0.001059 0.000093 0
0.001588 0.000139 0
0.002116 0.000185 0
0.002644 0.000229 0
0.003170 0.000272 0
0.003695 0.000313 0
0.004219 0.000353 0
0.004742 0.000391 0
0.005263 0.000427 0
0.005783 0.000461 0
0.006300 0.000492 0
0.006815 0.000522 0
0.007327 0.000550 0
0.007836 0.000575 0
0.008342 0.000598 0
0.008843 0.000618 0
0.009339 0.000637 0
0.009829 0.000653 0
0.010312 0.000668 0
0.010787 0.000680 0
0.011251 0.000690 0
0.011705 0.000699 0
0.012145 0.000705 0
0.012569 0.000709 0
0.012974 0.000712 0
0.013357 0.000713 0
0.013714 0.000712 0
0.014040 0.000709 0
0.014331 0.000704 0
0.014581 0.000697 0
0.014782 0.000687 0
0.014926 0.000676 0
0.015006 0.000662 0
0.015010 0.000646 0
0.014929 0.000626 0
0.014750 0.000604 0
0.014462 0.000578 0
0.014051 0.000549 0
0.013506 0.000516 0
0.012814 0.000478 0
0.011968 0.000437 0
0.010960 0.000390 0
0.009788 0.000340 0
0.008457 0.000285 0
0.006975 0.000226 0
0.005361 0.000164 0
0.003639 0.000100 0
0.001840 0.000033 0
0.000000 0.000000 0
0.000000 0.000000 0
0.000583 0.000053 0
0.001166 0.000105 0
0.001748 0.000156 0
0.002329 0.000207 0
0.002910 0.000256 0
0.003489 0.000304 0
0.004068 0.000351 0
0.004645 0.000395 0
0.005221 0.000437 0
0.005795 0.000477 0
0.006367 0.000515 0
0.006938 0.000550 0
0.007506 0.000583 0
0.008071 0.000613 0
0.008633 0.000640 0
0.009191 0.000666 0
0.009746 0.000688 0
0.010294 0.000709 0
0.010837 0.000726 0
0.011373 0.000742 0
0.011901 0.000755 0
0.012418 0.000766 0
0.012924 0.000775 0
0.013415 0.000782 0
0.013891 0.000787 0
0.014346 0.000789 0
0.014779 0.000790 0
0.015185 0.000789 0
0.015559 0.000785 0
0.015896 0.000780 0
0.016189 0.000772 0
0.016430 0.000762 0
0.016611 0.000750 0
0.016722 0.000735 0
0.016752 0.000717 0
0.016689 0.000696 0
0.016518 0.000672 0
0.016226 0.000644 0
0.015796 0.000612 0
0.015215 0.000576 0
0.014468 0.000535 0
0.013542 0.000489 0
0.012429 0.000438 0
0.011124 0.000382 0
0.009630 0.000321 0
0.007957 0.000255 0
0.006125 0.000186 0
0.004163 0.000113 0
0.002106 0.000038 0
0.000000 0.000000 0
0.000000 0.000000 0
0.000638 0.000059 0
0.001276 0.000117 0
0.001913 0.000175 0
0.002549 0.000231 0
0.003184 0.000286 0
0.003819 0.000339 0
0.004452 0.000391 0
0.005084 0.000440 0
0.005714 0.000487 0
0.006344 0.000531 0
0.006971 0.000572 0
0.007596 0.000611 0
0.008219 0.000647 0
0.008839 0.000680 0
0.009457 0.000710 0
0.010070 0.000738 0
0.010680 0.000762 0
0.011284 0.000784 0
0.011882 0.000804 0
0.012473 0.000820 0
0.013056 0.000834 0
0.013628 0.000846 0
0.014189 0.000855 0
0.014735 0.000862 0
0.015265 0.000867 0
0.015775 0.000870 0
0.016262 0.000870 0
0.016721 0.000869 0
0.017146 0.000865 0
0.017533 0.000859 0
0.017874 0.000851 0
0.018162 0.000840 0
0.018385 0.000827 0
0.018534 0.000811 0
0.018596 0.000791 0
0.018557 0.000769 0
0.018402 0.000743 0
0.018112 0.000713 0
0.017671 0.000679 0
0.017059 0.000639 0
0.016260 0.000595 0
0.015256 0.000545 0
0.014036 0.000489 0
0.012591 0.000427 0
0.010924 0.000359 0
0.009045 0.000286 0
0.006974 0.000208 0
0.004746 0.000127 0
0.002403 0.000043 0
0.000000 0.000000 0
0.000000 0.000000 0
0.000695 0.000065 0
0.001389 0.000130 0
0.002083 0.000194 0
0.002776 0.000257 0
0.003469 0.000318 0
0.004160 0.000377 0
0.004850 0.000434 0
0.005539 0.000489 0
0.006226 0.000540 0
0.006912 0.000589 0
0.007597 0.000634 0
0.008279 0.000677 0
0.008959 0.000716 0
0.009637 0.000752 0
0.010312 0.000785 0
0.010983 0.000815 0
0.011650 0.000841 0
0.012312 0.000865 0
0.012968 0.000885 0
0.013617 0.000903 0
0.014258 0.000918 0
0.014888 0.000930 0
0.015507 0.000940 0
0.016112 0.000947 0
0.016700 0.000952 0
0.017268 0.000954 0
0.017812 0.000955 0
0.018328 0.000953 0
0.018810 0.000948 0
0.019252 0.000942 0
0.019647 0.000933 0
0.019986 0.000921 0
0.020258 0.000907 0
0.020452 0.000890 0
0.020553 0.000869 0
0.020546 0.000845 0
0.020413 0.000818 0
0.020135 0.000786 0
0.019689 0.000749 0
0.019054 0.000706 0
0.018207 0.000658 0
0.017127 0.000604 0
0.015799 0.000543 0
0.014210 0.000475 0
0.012358 0.000400 0
0.010255 0.000320 0
0.007922 0.000233 0
0.005398 0.000142 0
0.002736 0.000048 0
0.000000 0.000000 0
0.000000 0.000000 0
0.000754 0.000073 0
0.001508 0.000145 0
0.002261 0.000216 0
0.003013 0.000286 0
0.003765 0.000354 0
0.004515 0.000419 0
0.005264 0.000482 0
0.006012 0.000542 0
0.006759 0.000598 0
0.007505 0.000652 0
0.008249 0.000702 0
0.008991 0.000748 0
0.009731 0.000791 0
0.010468 0.000830 0
0.011203 0.000865 0
0.011934 0.000897 0
0.012662 0.000925 0
0.013384 0.000950 0
0.014101 0.000972 0
0.014811 0.000991 0
0.015513 0.001006 0
0.016205 0.001019 0
0.016886 0.001029 0
0.017552 0.001036 0
0.018202 0.001041 0
0.018832 0.001043 0
0.019438 0.001043 0
0.020015 0.001040 0
0.020558 0.001036 0
0.021061 0.001028 0
0.021515 0.001018 0
0.021912 0.001006 0
0.022240 0.000991 0
0.022485 0.000972 0
0.022634 0.000951 0
0.022668 0.000925 0
0.022567 0.000896 0
0.022308 0.000862 0
0.021866 0.000822 0
0.021215 0.000777 0
0.020326 0.000726 0
0.019175 0.000667 0
0.017738 0.000601 0
0.015999 0.000527 0
0.013952 0.000445 0
0.011605 0.000356 0
0.008984 0.000260 0
0.006132 0.000158 0
0.003112 0.000053 0
0.000000 0.000000 0
0.000000 0.000000 0
0.000816 0.000081 0
0.001632 0.000161 0
0.002447 0.000240 0
0.003261 0.000317 0
0.004074 0.000392 0
0.004886 0.000465 0
0.005697 0.000534 0
0.006507 0.000600 0
0.007316 0.000662 0
0.008124 0.000720 0
0.008930 0.000775 0
0.009734 0.000825 0
0.010537 0.000871 0
0.011338 0.000913 0
0.012135 0.000951 0
0.012930 0.000985 0
0.013721 0.001015 0
0.014508 0.001042 0
0.015289 0.001065 0
0.016063 0.001084 0
0.016830 0.001100 0
0.017587 0.001113 0
0.018333 0.001123 0
0.019065 0.001130 0
0.019780 0.001135 0
0.020476 0.001137 0
0.021148 0.001136 0
0.021792 0.001133 0
0.022402 0.001127 0
0.022971 0.001119 0
0.023491 0.001108 0
0.023951 0.001094 0
0.024342 0.001078 0
0.024647 0.001059 0
0.024851 0.001036 0
0.024935 0.001009 0
0.024875 0.000978 0
0.024646 0.000942 0
0.024218 0.000900 0
0.023560 0.000852 0
0.022639 0.000797 0
0.021421 0.000734 0
0.019877 0.000663 0
0.017983 0.000582 0
0.015729 0.000493 0
0.013119 0.000395 0
0.010179 0.000289 0
0.006961 0.000176 0
0.003536 0.000059 0
0.000000 0.000000 0
0.000000 0.000000 0
0.000881 0.000090 0
0.001762 0.000179 0
0.002641 0.000266 0
0.003520 0.000352 0
0.004398 0.000435 0
0.005275 0.000515 0
0.006152 0.000591 0
0.007027 0.000663 0
0.007901 0.000731 0
0.008774 0.000795 0
0.009645 0.000854 0
0.010516 0.000909 0
0.011384 0.000959 0
0.012251 0.001004 0
0.013116 0.001044 0
0.013977 0.001080 0
0.014835 0.001112 0
0.015689 0.001140 0
0.016538 0.001164 0
0.017381 0.001184 0
0.018216 0.001200 0
0.019043 0.001213 0
0.019858 0.001223 0
0.020659 0.001230 0
0.021445 0.001234 0
0.022212 0.001235 0
0.022955 0.001234 0
0.023670 0.001229 0
0.024352 0.001223 0
0.024993 0.001214 0
0.025584 0.001202 0
0.026116 0.001187 0
0.026576 0.001170 0
0.026950 0.001149 0
0.027219 0.001125 0
0.027362 0.001096 0
0.027354 0.001064 0
0.027166 0.001026 0
0.026763 0.000982 0
0.026110 0.000931 0
0.025165 0.000873 0
0.023888 0.000805 0
0.022239 0.000729 0
0.020188 0.000642 0
0.017715 0.000545 0
0.014820 0.000437 0
0.011529 0.000321 0
0.007900 0.000196 0
0.004019 0.000066 0
0.000000 0.000000 0
0.000000 0.000000 0
0.000950 0.000100 0
0.001898 0.000199 0
0.002847 0.000296 0
0.003794 0.000391 0
0.004740 0.000482 0
0.005686 0.000570 0
0.006630 0.000654 0
0.007574 0.000734 0
0.008517 0.000808 0
0.009459 0.000878 0
0.010400 0.000942 0
0.011340 0.001000 0
0.012278 0.001054 0
0.013215 0.001102 0
0.014150 0.001145 0
0.015083 0.001183 0
0.016012 0.001217 0
0.016938 0.001246 0
0.017859 0.001270 0
0.018774 0.001290 0
0.019682 0.001307 0
0.020582 0.001320 0
0.021471 0.001329 0
0.022347 0.001336 0
0.023208 0.001339 0
0.024050 0.001339 0
0.024870 0.001337 0
0.025662 0.001331 0
0.026421 0.001324 0
0.027140 0.001313 0
0.027809 0.001300 0
0.028420 0.001284 0
0.028958 0.001265 0
0.029408 0.001243 0
0.029751 0.001218 0
0.029964 0.001188 0
0.030020 0.001154 0
0.029884 0.001114 0
0.029521 0.001068 0
0.028885 0.001014 0
0.027928 0.000953 0
0.026601 0.000881 0
0.024854 0.000800 0
0.022644 0.000706 0
0.019940 0.000601 0
0.016737 0.000484 0
0.013059 0.000355 0
0.008968 0.000217 0
0.004570 0.000073 0
0.000000 0.000000 0
0.000000 0.000000 0
0.001022 0.000111 0
0.002043 0.000221 0
0.003064 0.000329 0
0.004083 0.000434 0
0.005102 0.000535 0
0.006120 0.000633 0
0.007137 0.000725 0
0.008154 0.000812 0
0.009169 0.000893 0
0.010185 0.000969 0
0.011199 0.001038 0
0.012213 0.001101 0
0.013226 0.001159 0
0.014237 0.001210 0
0.015247 0.001255 0
0.016255 0.001295 0
0.017260 0.001330 0
0.018262 0.001360 0
0.019260 0.001385 0
0.020253 0.001405 0
0.021239 0.001421 0
0.022216 0.001434 0
0.023184 0.001443 0
0.024140 0.001448 0
0.025081 0.001450 0
0.026005 0.001449 0
0.026906 0.001445 0