# vtk DataFile Version 2.0
generated by CFD-lab course output (written by Tobias Neckel) 
ASCII

DATASET STRUCTURED_GRID
DIMENSIONS  51 51 1 
POINTS 2601 float

0.000000 0.000000 0
0.020000 0.000000 0
0.040000 0.000000 0
0.060000 0.000000 0
0.080000 0.000000 0
0.100000 0.000000 0
0.120000 0.000000 0
0.140000 0.000000 0
0.160000 0.000000 0
0.180000 0.000000 0
0.200000 0.000000 0
0.220000 0.000000 0
0.240000 0.000000 0
0.260000 0.000000 0
0.280000 0.000000 0
0.300000 0.000000 0
0.320000 0.000000 0
0.340000 0.000000 0
0.360000 0.000000 0
0.380000 0.000000 0
0.400000 0.000000 0
0.420000 0.000000 0
0.440000 0.000000 0
0.460000 0.000000 0
0.480000 0.000000 0
0.500000 0.000000 0
0.520000 0.000000 0
0.540000 0.000000 0
0.560000 0.000000 0
0.580000 0.000000 0
0.600000 0.000000 0
0.620000 0.000000 0
0.640000 0.000000 0
0.660000 0.000000 0
0.680000 0.000000 0
0.700000 0.000000 0
0.720000 0.000000 0
0.740000 0.000000 0
0.760000 0.000000 0
0.780000 0.000000 0
0.800000 0.000000 0
0.820000 0.000000 0
0.840000 0.000000 0
0.860000 0.000000 0
0.880000 0.000000 0
0.900000 0.000000 0
0.920000 0.000000 0
0.940000 0.000000 0
0.960000 0.000000 0
0.980000 0.000000 0
1.000000 0.000000 0
0.000000 0.020000 0
0.020000 0.020000 0
0.040000 0.020000 0
0.060000 0.020000 0
0.080000 0.020000 0
0.100000 0.020000 0
0.120000 0.020000 0
0.140000 0.020000 0
0.160000 0.020000 0
0.180000 0.020000 0
0.200000 0.020000 0
0.220000 0.020000 0
0.240000 0.020000 0
0.260000 0.020000 0
0.280000 0.020000 0
0.300000 0.020000 0
0.320000 0.020000 0
0.340000 0.020000 0
0.360000 0.020000 0
0.380000 0.020000 0
0.400000 0.020000 0
0.420000 0.020000 0
0.440000 0.020000 0
0.460000 0.020000 0
0.480000 0.020000 0
0.500000 0.020000 0
0.520000 0.020000 0
0.540000 0.020000 0
0.560000 0.020000 0
0.580000 0.020000 0
0.600000 0.020000 0
0.620000 0.020000 0
0.640000 0.020000 0
0.660000 0.020000 0
0.680000 0.020000 0
0.700000 0.020000 0
0.720000 0.020000 0
0.740000 0.020000 0
0.760000 0.020000 0
0.780000 0.020000 0
0.800000 0.020000 0
0.820000 0.020000 0
0.840000 0.020000 0
0.860000 0.020000 0
0.880000 0.020000 0
0.900000 0.020000 0
0.920000 0.020000 0
0.940000 0.020000 0
0.960000 0.020000 0
0.980000 0.020000 0
1.000000 0.020000 0
0.000000 0.040000 0
0.020000 0.040000 0
0.040000 0.040000 0
0.060000 0.040000 0
0.080000 0.040000 0
0.100000 0.040000 0
0.120000 0.040000 0
0.140000 0.040000 0
0.160000 0.040000 0
0.180000 0.040000 0
0.200000 0.040000 0
0.220000 0.040000 0
0.240000 0.040000 0
0.260000 0.040000 0
0.280000 0.040000 0
0.300000 0.040000 0
0.320000 0.040000 0
0.340000 0.040000 0
0.360000 0.040000 0
0.380000 0.040000 0
0.400000 0.040000 0
0.420000 0.040000 0
0.440000 0.040000 0
0.460000 0.040000 0
0.480000 0.040000 0
0.500000 0.040000 0
0.520000 0.040000 0
0.540000 0.040000 0
0.560000 0.040000 0
0.580000 0.040000 0
0.600000 0.040000 0
0.620000 0.040000 0
0.640000 0.040000 0
0.660000 0.040000 0
0.680000 0.040000 0
0.700000 0.040000 0
0.720000 0.040000 0
0.740000 0.040000 0
0.760000 0.040000 0
0.780000 0.040000 0
0.800000 0.040000 0
0.820000 0.040000 0
0.840000 0.040000 0
0.860000 0.040000 0
0.880000 0.040000 0
0.900000 0.040000 0
0.920000 0.040000 0
0.940000 0.040000 0
0.960000 0.040000 0
0.980000 0.040000 0
1.000000 0.040000 0
0.000000 0.060000 0
0.020000 0.060000 0
0.040000 0.060000 0
0.060000 0.060000 0
0.080000 0.060000 0
0.100000 0.060000 0
0.120000 0.060000 0
0.140000 0.060000 0
0.160000 0.060000 0
0.180000 0.060000 0
0.200000 0.060000 0
0.220000 0.060000 0
0.240000 0.060000 0
0.260000 0.060000 0
0.280000 0.060000 0
0.300000 0.060000 0
0.320000 0.060000 0
0.340000 0.060000 0
0.360000 0.060000 0
0.380000 0.060000 0
0.400000 0.060000 0
0.420000 0.060000 0
0.440000 0.060000 0
0.460000 0.060000 0
0.480000 0.060000 0
0.500000 0.060000 0
0.520000 0.060000 0
0.540000 0.060000 0
0.560000 0.060000 0
0.580000 0.060000 0
0.600000 0.060000 0
0.620000 0.060000 0
0.640000 0.060000 0
0.660000 0.060000 0
0.680000 0.060000 0
0.700000 0.060000 0
0.720000 0.060000 0
0.740000 0.060000 0
0.760000 0.060000 0
0.780000 0.060000 0
0.800000 0.060000 0
0.820000 0.060000 0
0.840000 0.060000 0
0.860000 0.060000 0
0.880000 0.060000 0
0.900000 0.060000 0
0.920000 0.060000 0
0.940000 0.060000 0
0.960000 0.060000 0
0.980000 0.060000 0
1.000000 0.060000 0
0.000000 0.080000 0
0.020000 0.080000 0
0.040000 0.080000 0
0.060000 0.080000 0
0.080000 0.080000 0
0.100000 0.080000 0
0.120000 0.080000 0
0.140000 0.080000 0
0.160000 0.080000 0
0.180000 0.080000 0
0.200000 0.080000 0
0.220000 0.080000 0
0.240000 0.080000 0
0.260000 0.080000 0
0.280000 0.080000 0
0.300000 0.080000 0
0.320000 0.080000 0
0.340000 0.080000 0
0.360000 0.080000 0
0.380000 0.080000 0
0.400000 0.080000 0
0.420000 0.080000 0
0.440000 0.080000 0
0.460000 0.080000 0
0.480000 0.080000 0
0.500000 0.080000 0
0.520000 0.080000 0
0.540000 0.080000 0
0.560000 0.080000 0
0.580000 0.080000 0
0.600000 0.080000 0
0.620000 0.080000 0
0.640000 0.080000 0
0.660000 0.080000 0
0.680000 0.080000 0
0.700000 0.080000 0
0.720000 0.080000 0
0.740000 0.080000 0
0.760000 0.080000 0
0.780000 0.080000 0
0.800000 0.080000 0
0.820000 0.080000 0
0.840000 0.080000 0
0.860000 0.080000 0
0.880000 0.080000 0
0.900000 0.080000 0
0.920000 0.080000 0
0.940000 0.080000 0
0.960000 0.080000 0
0.980000 0.080000 0
1.000000 0.080000 0
0.000000 0.100000 0
0.020000 0.100000 0
0.040000 0.100000 0
0.060000 0.100000 0
0.080000 0.100000 0
0.100000 0.100000 0
0.120000 0.100000 0
0.140000 0.100000 0
0.160000 0.100000 0
0.180000 0.100000 0
0.200000 0.100000 0
0.220000 0.100000 0
0.240000 0.100000 0
0.260000 0.100000 0
0.280000 0.100000 0
0.300000 0.100000 0
0.320000 0.100000 0
0.340000 0.100000 0
0.360000 0.100000 0
0.380000 0.100000 0
0.400000 0.100000 0
0.420000 0.100000 0
0.440000 0.100000 0
0.460000 0.100000 0
0.480000 0.100000 0
0.500000 0.100000 0
0.520000 0.100000 0
0.540000 0.100000 0
0.560000 0.100000 0
0.580000 0.100000 0
0.600000 0.100000 0
0.620000 0.100000 0
0.640000 0.100000 0
0.660000 0.100000 0
0.680000 0.100000 0
0.700000 0.100000 0
0.720000 0.100000 0
0.740000 0.100000 0
0.760000 0.100000 0
0.780000 0.100000 0
0.800000 0.100000 0
0.820000 0.100000 0
0.840000 0.100000 0
0.860000 0.100000 0
0.880000 0.100000 0
0.900000 0.100000 0
0.920000 0.100000 0
0.940000 0.100000 0
0.960000 0.100000 0
0.980000 0.100000 0
1.000000 0.100000 0
0.000000 0.120000 0
0.020000 0.120000 0
0.040000 0.120000 0
0.060000 0.120000 0
0.080000 0.120000 0
0.100000 0.120000 0
0.120000 0.120000 0
0.140000 0.120000 0
0.160000 0.120000 0
0.180000 0.120000 0
0.200000 0.120000 0
0.220000 0.120000 0
0.240000 0.120000 0
0.260000 0.120000 0
0.280000 0.120000 0
0.300000 0.120000 0
0.320000 0.120000 0
0.340000 0.120000 0
0.360000 0.120000 0
0.380000 0.120000 0
0.400000 0.120000 0
0.420000 0.120000 0
0.440000 0.120000 0
0.460000 0.120000 0
0.480000 0.120000 0
0.500000 0.120000 0
0.520000 0.120000 0
0.540000 0.120000 0
0.560000 0.120000 0
0.580000 0.120000 0
0.600000 0.120000 0
0.620000 0.120000 0
0.640000 0.120000 0
0.660000 0.120000 0
0.680000 0.120000 0
0.700000 0.120000 0
0.720000 0.120000 0
0.740000 0.120000 0
0.760000 0.120000 0
0.780000 0.120000 0
0.800000 0.120000 0
0.820000 0.120000 0
0.840000 0.120000 0
0.860000 0.120000 0
0.880000 0.120000 0
0.900000 0.120000 0
0.920000 0.120000 0
0.940000 0.120000 0
0.960000 0.120000 0
0.980000 0.120000 0
1.000000 0.120000 0
0.000000 0.140000 0
0.020000 0.140000 0
0.040000 0.140000 0
0.060000 0.140000 0
0.080000 0.140000 0
0.100000 0.140000 0
0.120000 0.140000 0
0.140000 0.140000 0
0.160000 0.140000 0
0.180000 0.140000 0
0.200000 0.140000 0
0.220000 0.140000 0
0.240000 0.140000 0
0.260000 0.140000 0
0.280000 0.140000 0
0.300000 0.140000 0
0.320000 0.140000 0
0.340000 0.140000 0
0.360000 0.140000 0
0.380000 0.140000 0
0.400000 0.140000 0
0.420000 0.140000 0
0.440000 0.140000 0
0.460000 0.140000 0
0.480000 0.140000 0
0.500000 0.140000 0
0.520000 0.140000 0
0.540000 0.140000 0
0.560000 0.140000 0
0.580000 0.140000 0
0.600000 0.140000 0
0.620000 0.140000 0
0.640000 0.140000 0
0.660000 0.140000 0
0.680000 0.140000 0
0.700000 0.140000 0
0.720000 0.140000 0
0.740000 0.140000 0
0.760000 0.140000 0
0.780000 0.140000 0
0.800000 0.140000 0
0.820000 0.140000 0
0.840000 0.140000 0
0.860000 0.140000 0
0.880000 0.140000 0
0.900000 0.140000 0
0.920000 0.140000 0
0.940000 0.140000 0
0.960000 0.140000 0
0.980000 0.140000 0
1.000000 0.140000 0
0.000000 0.160000 0
0.020000 0.160000 0
0.040000 0.160000 0
0.060000 0.160000 0
0.080000 0.160000 0
0.100000 0.160000 0
0.120000 0.160000 0
0.140000 0.160000 0
0.160000 0.160000 0
0.180000 0.160000 0
0.200000 0.160000 0
0.220000 0.160000 0
0.240000 0.160000 0
0.260000 0.160000 0
0.280000 0.160000 0
0.300000 0.160000 0
0.320000 0.160000 0
0.340000 0.160000 0
0.360000 0.160000 0
0.380000 0.160000 0
0.400000 0.160000 0
0.420000 0.160000 0
0.440000 0.160000 0
0.460000 0.160000 0
0.480000 0.160000 0
0.500000 0.160000 0
0.520000 0.160000 0
0.540000 0.160000 0
0.560000 0.160000 0
0.580000 0.160000 0
0.600000 0.160000 0
0.620000 0.160000 0
0.640000 0.160000 0
0.660000 0.160000 0
0.680000 0.160000 0
0.700000 0.160000 0
0.720000 0.160000 0
0.740000 0.160000 0
0.760000 0.160000 0
0.780000 0.160000 0
0.800000 0.160000 0
0.820000 0.160000 0
0.840000 0.160000 0
0.860000 0.160000 0
0.880000 0.160000 0
0.900000 0.160000 0
0.920000 0.160000 0
0.940000 0.160000 0
0.960000 0.160000 0
0.980000 0.160000 0
1.000000 0.160000 0
0.000000 0.180000 0
0.020000 0.180000 0
0.040000 0.180000 0
0.060000 0.180000 0
0.080000 0.180000 0
0.100000 0.180000 0
0.120000 0.180000 0
0.140000 0.180000 0
0.160000 0.180000 0
0.180000 0.180000 0
0.200000 0.180000 0
0.220000 0.180000 0
0.240000 0.180000 0
0.260000 0.180000 0
0.280000 0.180000 0
0.300000 0.180000 0
0.320000 0.180000 0
0.340000 0.180000 0
0.360000 0.180000 0
0.380000 0.180000 0
0.400000 0.180000 0
0.420000 0.180000 0
0.440000 0.180000 0
0.460000 0.180000 0
0.480000 0.180000 0
0.500000 0.180000 0
0.520000 0.180000 0
0.540000 0.180000 0
0.560000 0.180000 0
0.580000 0.180000 0
0.600000 0.180000 0
0.620000 0.180000 0
[...]
POINT_DATA 2601 

VECTORS velocity float
0.000000 0.000000 0
0.000000 0.000000 0
0.000000 0.000000 0
0.000000 0.000000 0
0.000000 0.000000 0
0.000000 0.000000 0
0.000000 0.000000 0
0.000000 0.000000 0
0.000000 0.000000 0
0.000000 0.000000 0
0.000000 0.000000 0
0.000000 0.000000 0
0.000000 0.000000 0
0.000000 0.000000 0
0.000000 0.000000 0
0.000000 0.000000 0
0.000000 0.000000 0
0.000000 0.000000 0
0.000000 0.000000 0
0.000000 0.000000 0
0.000000 0.000000 0
0.000000 0.000000 0
0.000000 0.000000 0
0.000000 0.000000 0
0.000000 0.000000 0
0.000000 0.000000 0
0.000000 0.000000 0
0.000000 0.000000 0
0.000000 0.000000 0
0.000000 0.000000 0
0.000000 0.000000 0
0.000000 0.000000 0
0.000000 0.000000 0
0.000000 0.000000 0
0.000000 0.000000 0
0.000000 0.000000 0
0.000000 0.000000 0
0.000000 0.000000 0
0.000000 0.000000 0
0.000000 0.000000 0
0.000000 0.000000 0
0.000000 0.000000 0
0.000000 0.000000 0
0.000000 0.000000 0
0.000000 0.000000 0
0.000000 0.000000 0
0.000000 0.000000 0
0.000000 0.000000 0
0.000000 0.000000 0
0.000000 0.000000 0
0.000000 0.000000 0
0.000000 0.000000 0
0.000047 0.000004 0
0.000095 0.000008 0
0.000142 0.000012 0
0.000189 0.000015 0
0.000237 0.000019 0
0.000284 0.000023 0
0.000331 0.000026 0
0.000377 0.000030 0
0.000424 0.000033 0
0.000470 0.000036 0
0.000516 0.000039 0
0.000562 0.000042 0
0.000608 0.000045 0
0.000653 0.000047 0
0.000697 0.000049 0
0.000741 0.000052 0
0.000785 0.000053 0
0.000828 0.000055 0
0.000870 0.000057 0
0.000911 0.000058 0
0.000951 0.000060 0
0.000989 0.000061 0
0.001026 0.000062 0
0.001062 0.000062 0
0.001095 0.000063 0
0.001126 0.000063 0
0.001155 0.000063 0
0.001180 0.000063 0
0.001202 0.000063 0
0.001220 0.000063 0
0.001234 0.000062 0
0.001242 0.000061 0
0.001245 0.000060 0
0.001241 0.000058 0
0.001230 0.000057 0
0.001212 0.000055 0
0.001185 0.000053 0
0.001149 0.000050 0
0.001104 0.000047 0
0.001049 0.000044 0
0.000984 0.000040 0
0.000908 0.000037 0
0.000822 0.000033 0
0.000726 0.000028 0
0.000621 0.000023 0
0.000508 0.000018 0
0.000387 0.000013 0
0.000261 0.000008 0
0.000132 0.000003 0
0.000000 0.000000 0
0.000000 0.000000 0
0.000095 0.000008 0
0.000190 0.000016 0
0.000284 0.000023 0
0.000379 0.000031 0
0.000473 0.000038 0
0.000568 0.000046 0
0.000662 0.000053 0
0.000755 0.000059 0
0.000848 0.000066 0
0.000941 0.000072 0
0.001033 0.000078 0
0.001125 0.000084 0
0.001216 0.000089 0
0.001306 0.000094 0
0.001395 0.000099 0
0.001484 0.000103 0
0.001571 0.000107 0
0.001656 0.000111 0
0.001741 0.000114 0
0.001823 0.000117 0
0.001903 0.000119 0
0.001980 0.000122 0
0.002055 0.000123 0
0.002126 0.000125 0
0.002193 0.000126 0
0.002256 0.000126 0
0.002313 0.000127 0
0.002364 0.000127 0
0.002408 0.000126 0
0.002445 0.000125 0
0.002472 0.000124 0
0.002490 0.000122 0
0.002496 0.000120 0
0.002489 0.000117 0
0.002468 0.000114 0
0.002432 0.000110 0
0.002379 0.000105 0
0.002308 0.000100 0
0.002218 0.000095 0
0.002108 0.000088 0
0.001978 0.000081 0
0.001826 0.000074 0
0.001653 0.000065 0
0.001461 0.000056 0
0.001250 0.000047 0
0.001022 0.000037 0
0.000780 0.000027 0
0.000527 0.000016 0
0.000265 0.000005 0
0.000000 0.000000 0
0.000000 0.000000 0
0.000142 0.000012 0
0.000285 0.000023 0
0.000427 0.000035 0
0.000569 0.000046 0
0.000711 0.000058 0
0.000852 0.000069 0
0.000993 0.000079 0
0.001134 0.000089 0
0.001273 0.000099 0
0.001413 0.000109 0
0.001551 0.000118 0
0.001689 0.000126 0
0.001826 0.000134 0
0.001961 0.000142 0
0.002095 0.000149 0
0.002228 0.000155 0
0.002359 0.000161 0
0.002488 0.000167 0
0.002614 0.000172 0
0.002738 0.000176 0
0.002859 0.000180 0
0.002975 0.000183 0
0.003088 0.000186 0
0.003195 0.000188 0
0.003297 0.000189 0
0.003391 0.000190 0
0.003478 0.000191 0
0.003556 0.000191 0
0.003624 0.000190 0
0.003680 0.000188 0
0.003722 0.000186 0
0.003750 0.000184 0
0.003760 0.000180 0
0.003752 0.000176 0
0.003722 0.000171 0
0.003669 0.000166 0
0.003591 0.000159 0
0.003486 0.000151 0
0.003352 0.000143 0
0.003187 0.000133 0
0.002991 0.000123 0
0.002763 0.000111 0
0.002504 0.000099 0
0.002214 0.000085 0
0.001895 0.000071 0
0.001550 0.000056 0
0.001183 0.000041 0
0.000799 0.000025 0
0.000403 0.000008 0
0.000000 0.000000 0
0.000000 0.000000 0
0.000190 0.000016 0
0.000380 0.000031 0
0.000570 0.000047 0
0.000760 0.000062 0
0.000949 0.000077 0
0.001138 0.000092 0
0.001326 0.000106 0
0.001513 0.000120 0
0.001700 0.000133 0
0.001886 0.000146 0
0.002071 0.000158 0
0.002255 0.000169 0
0.002438 0.000180 0
0.002619 0.000190 0
0.002798 0.000199 0
0.002976 0.000208 0
0.003151 0.000216 0
0.003323 0.000223 0
0.003493 0.000230 0
0.003659 0.000235 0
0.003820 0.000240 0
0.003977 0.000245 0
0.004128 0.000248 0
0.004272 0.000251 0
0.004409 0.000253 0
0.004537 0.000255 0
0.004655 0.000255 0
0.004760 0.000255 0
0.004853 0.000254 0
0.004930 0.000252 0
0.004989 0.000250 0
0.005028 0.000246 0
0.005045 0.000242 0
0.005036 0.000236 0
0.004999 0.000230 0
0.004932 0.000222 0
0.004830 0.000213 0
0.004692 0.000203 0
0.004515 0.000192 0
0.004296 0.000179 0
0.004035 0.000165 0
0.003730 0.000150 0
0.003382 0.000133 0
0.002992 0.000115 0
0.002563 0.000096 0
0.002098 0.000076 0
0.001602 0.000055 0
0.001082 0.000033 0
0.000545 0.000011 0
0.000000 0.000000 0
0.000000 0.000000 0
0.000238 0.000020 0
0.000476 0.000040 0
0.000714 0.000059 0
0.000951 0.000079 0
0.001188 0.000097 0
0.001424 0.000116 0
0.001660 0.000134 0
0.001895 0.000151 0
0.002129 0.000168 0
0.002362 0.000184 0
0.002594 0.000199 0
0.002825 0.000213 0
0.003054 0.000227 0
0.003281 0.000239 0
0.003506 0.000251 0
0.003729 0.000262 0
0.003949 0.000272 0
0.004165 0.000281 0
0.004378 0.000289 0
0.004587 0.000296 0
0.004790 0.000302 0
0.004988 0.000308 0
0.005178 0.000312 0
0.005361 0.000316 0
0.005534 0.000318 0
0.005696 0.000320 0
0.005846 0.000321 0
0.005981 0.000321 0
0.006100 0.000319 0
0.006200 0.000317 0
0.006277 0.000314 0
0.006331 0.000310 0
0.006356 0.000304 0
0.006349 0.000297 0
0.006308 0.000289 0
0.006227 0.000280 0
0.006104 0.000269 0
0.005935 0.000256 0
0.005716 0.000242 0
0.005445 0.000226 0
0.005118 0.000208 0
0.004736 0.000189 0
0.004298 0.000168 0
0.003806 0.000145 0
0.003262 0.000121 0
0.002672 0.000096 0
0.002042 0.000069 0
0.001380 0.000042 0
0.000696 0.000014 0
0.000000 0.000000 0
0.000000 0.000000 0
0.000286 0.000024 0
0.000573 0.000048 0
0.000859 0.000072 0
0.001144 0.000095 0
0.001429 0.000118 0
0.001714 0.000140 0
0.001997 0.000162 0
0.002280 0.000183 0
0.002562 0.000203 0
0.002842 0.000222 0
0.003121 0.000241 0
0.003399 0.000258 0
0.003675 0.000274 0
0.003948 0.000289 0
0.004220 0.000304 0
0.004488 0.000317 0
0.004754 0.000328 0
0.005015 0.000339 0
0.005273 0.000349 0
0.005525 0.000358 0
0.005771 0.000365 0
0.006010 0.000372 0
0.006242 0.000377 0
0.006464 0.000381 0
0.006675 0.000384 0
0.006873 0.000386 0
0.007057 0.000387 0
0.007224 0.000387 0
0.007371 0.000386 0
0.007495 0.000383 0
0.007594 0.000379 0
0.007664 0.000374 0
0.007700 0.000368 0
0.007699 0.000360 0
0.007655 0.000350 0
0.007565 0.000339 0
0.007423 0.000326 0
0.007224 0.000310 0
0.006966 0.000293 0
0.006642 0.000274 0
0.006251 0.000253 0
0.005791 0.000230 0
0.005261 0.000205 0
0.004663 0.000177 0
0.004001 0.000148 0
0.003279 0.000117 0
0.002508 0.000085 0
0.001695 0.000051 0
0.000855 0.000017 0
0.000000 0.000000 0
0.000000 0.000000 0
0.000335 0.000028 0
0.000670 0.000057 0
0.001005 0.000085 0
0.001339 0.000112 0
0.001673 0.000139 0
0.002005 0.000166 0
0.002337 0.000191 0
0.002668 0.000216 0
0.002998 0.000240 0
0.003327 0.000262 0
0.003654 0.000284 0
0.003979 0.000304 0
0.004302 0.000323 0
0.004623 0.000341 0
0.004942 0.000358 0
0.005257 0.000373 0
0.005569 0.000387 0
0.005876 0.000399 0
0.006179 0.000411 0
0.006476 0.000421 0
0.006766 0.000430 0
0.007048 0.000437 0
0.007322 0.000443 0
0.007585 0.000448 0
0.007835 0.000452 0
0.008072 0.000454 0
0.008291 0.000455 0
0.008492 0.000455 0
0.008670 0.000454 0
0.008822 0.000451 0
0.008945 0.000446 0
0.009034 0.000440 0
0.009085 0.000433 0
0.009091 0.000424 0
0.009049 0.000412 0
0.008952 0.000399 0
0.008794 0.000384 0
0.008570 0.000367 0
0.008273 0.000347 0
0.007899 0.000325 0
0.007444 0.000300 0
0.006905 0.000272 0
0.006281 0.000243 0
0.005574 0.000210 0
0.004787 0.000176 0
0.003928 0.000139 0
0.003006 0.000101 0
0.002034 0.000061 0
0.001026 0.000020 0
0.000000 0.000000 0
0.000000 0.000000 0
0.000385 0.000033 0
0.000769 0.000066 0
0.001153 0.000098 0
0.001536 0.000130 0
0.001919 0.000162 0
0.002301 0.000192 0
0.002682 0.000222 0
0.003062 0.000250 0
0.003441 0.000278 0
0.003818 0.000304 0
0.004193 0.000329 0
0.004567 0.000352 0
0.004939 0.000374 0
0.005308 0.000394 0
0.005674 0.000413 0
0.006037 0.000431 0
0.006396 0.000447 0
0.006750 0.000461 0
0.007099 0.000474 0
0.007442 0.000486 0
0.007778 0.000496 0
0.008105 0.000504 0
0.008422 0.000511 0
0.008728 0.000517 0
0.009020 0.000521 0
0.009297 0.000524 0
0.009555 0.000525 0
0.009791 0.000525 0
0.010003 0.000523 0
0.010186 0.000520 0
0.010336 0.000515 0
0.010448 0.000508 0
0.010516 0.000500 0
0.010535 0.000489 0
0.010498 0.000477 0
0.010398 0.000462 0
0.010228 0.000444 0
0.009980 0.000425 0
0.009648 0.000402 0
0.009226 0.000377 0
0.008707 0.000348 0
0.008089 0.000317 0
0.007368 0.000282 0
0.006548 0.000245 0
0.005631 0.000205 0
0.004625 0.000162 0
0.003543 0.000118 0
0.002398 0.000071 0
0.001211 0.000024 0
0.000000 0.000000 0
0.000000 0.000000 0
0.000435 0.000038 0
0.000869 0.000075 0
0.001303 0.000113 0
0.001737 0.000149 0
0.002169 0.000185 0
0.002601 0.000220 0
0.003032 0.000254 0
0.003462 0.000286 0
0.003890 0.000317 0
0.004317 0.000347 0
0.004742 0.000375 0
0.005165 0.000402 0
0.005586 0.000427 0
0.006004 0.000450 0
0.006419 0.000471 0
0.006831 0.000491 0
0.007238 0.000509 0
0.007641 0.000525 0
0.008038 0.000540 0
0.008428 0.000553 0
0.008811 0.000564 0
0.009185 0.000573 0
0.009547 0.000581 0
0.009898 0.000588 0
0.010234 0.000592 0
0.010553 0.000595 0
0.010852 0.000597 0
0.011127 0.000596 0
0.011376 0.000595 0
0.011593 0.000591 0
0.011774 0.000585 0
0.011912 0.000578 0
0.012003 0.000568 0
0.012038 0.000557 0
0.012010 0.000543 0
0.011912 0.000526 0
0.011733 0.000507 0
0.011467 0.000485 0
0.011103 0.000460 0
0.010634 0.000431 0
0.010053 0.000399 0
0.009354 0.000363 0
0.008535 0.000324 0
0.007596 0.000282 0
0.006542 0.000236 0
0.005380 0.000187 0
0.004125 0.000136 0
0.002795 0.000082 0
0.001412 0.000028 0
0.000000 0.000000 0
0.000000 0.000000 0
0.000486 0.000043 0
0.000971 0.000085 0
0.001456 0.000128 0
0.001941 0.000169 0
0.002425 0.000210 0
0.002907 0.000249 0
0.003389 0.000287 0
0.003869 0.000324 0
0.004348 0.000359 0
0.004826 0.000392 0
0.005301 0.000424 0
0.005775 0.000454 0
0.006246 0.000482 0
0.006715 0.000508 0
0.007180 0.000532 0
0.007642 0.000554 0
0.008099 0.000574 0
0.008551 0.000592 0
0.008998 0.000608 0
0.009437 0.000622 0
0.009869 0.000634 0
0.010291 0.000645 0
0.010701 0.000654 0
0.011099 0.000661 0
0.011481 0.000666 0
0.011845 0.000669 0
0.012187 0.000670 0
0.012505 0.000670 0
0.012794 0.000668 0
0.013049 0.000664 0
0.013264 0.000658 0
0.013434 0.000650 0
0.013551 0.000639 0
0.013607 0.000627 0
0.013594 0.000611 0
0.013502 0.000593 0
0.013320 0.000572 0
0.013039 0.000547 0
0.012647 0.000519 0
0.012134 0.000488 0
0.011492 0.000452 0
0.010713 0.000412 0
0.009793 0.000368 0
0.008731 0.000320 0
0.007531 0.000269 0
0.006203 0.000213 0
0.004762 0.000155 0
0.003229 0.000094 0
0.001632 0.000031 0
0.000000 0.000000 0
0.000000 0.000000 0
0.000538 0.000048 0
0.001076 0.000096 0
0.001613 0.000144 0
0.002150 0.000190 0
0.002685 0.000236 0
0.003220 0.000280 0
0.003754 0.000323 0
0.004286 0.000364 0
0.004817 0.000403 0
0.005346 0.000440 0
0.005874 0.000476 0
0.006399 0.000509 0
0.006922 0.000540 0
0.007442 0.000569 0
0.007959 0.000595 0
0.008473 0.000619 0
0.008981 0.000641 0
0.009485 0.000661 0
0.009983 0.000679 0
0.010473 0.000694 0
0.010956 0.000708 0
0.011428 0.000719 0
0.011889 0.000729 0
0.012336 0.000736 0
0.012766 0.000742 0
0.013178 0.000745 0
0.013568 0.000747 0
0.013931 0.000746 0
0.014264 0.000744 0
0.014561 0.000740 0
0.014815 0.000733 0
0.015021 0.000724 0
0.015169 0.000713 0
0.015252 0.000699 0
0.015258 0.000682 0
0.015178 0.000662 0
0.014999 0.000639 0
0.014708 0.000613 0
0.014292 0.000582 0
0.013740 0.000547 0
0.013039 0.000508 0
0.012180 0.000464 0
0.011156 0.000415 0
0.009965 0.000362 0
0.008611 0.000303 0
0.007104 0.000241 0
0.005461 0.000175 0
0.003707 0.000106 0
0.001875 0.000036 0
0.000000 0.000000 0
0.000000 0.000000 0
0.000592 0.000054 0
0.001183 0.000108 0
0.001774 0.000161 0
0.002364 0.000213 0
0.002953 0.000263 0
0.003541 0.000313 0
0.004128 0.000360 0
0.004714 0.000406 0
0.005298 0.000450 0
0.005881 0.000491 0
0.006462 0.000530 0
0.007041 0.000567 0
0.007617 0.000601 0
0.008190 0.000633 0
0.008761 0.000662 0
0.009327 0.000688 0
0.009890 0.000712 0
0.010447 0.000734 0
0.010997 0.000753 0
0.011541 0.000770 0
0.012076 0.000785 0
0.012601 0.000797 0
0.013115 0.000807 0
0.013614 0.000815 0
0.014096 0.000820 0
0.014560 0.000824 0
0.014999 0.000826 0
0.015412 0.000825 0
0.015793 0.000823 0
0.016135 0.000818 0
0.016434 0.000811 0
0.016680 0.000801 0
0.016866 0.000789 0
0.016980 0.000774 0
0.017013 0.000756 0
0.016950 0.000735 0
0.016780 0.000710 0
0.016485 0.000681 0
0.016052 0.000647 0
0.015464 0.000610 0
0.014707 0.000567 0
0.013769 0.000518 0
0.012639 0.000464 0
0.011314 0.000405 0
0.009797 0.000341 0
0.008096 0.000271 0
0.006233 0.000197 0
0.004236 0.000120 0
0.002144 0.000040 0
0.000000 0.000000 0
0.000000 0.000000 0
0.000647 0.000060 0
0.001293 0.000120 0
0.001939 0.000179 0
0.002585 0.000237 0
0.003229 0.000293 0
0.003872 0.000348 0
0.004514 0.000401 0
0.005155 0.000452 0
0.005794 0.000500 0
0.006432 0.000546 0
0.007068 0.000589 0
0.007702 0.000629 0
0.008334 0.000666 0
0.008962 0.000701 0
0.009588 0.000732 0
0.010210 0.000761 0
0.010828 0.000787 0
0.011440 0.000811 0
0.012047 0.000831 0
0.012646 0.000849 0
0.013236 0.000865 0
0.013817 0.000878 0
0.014386 0.000888 0
0.014940 0.000897 0
0.015477 0.000903 0
0.015995 0.000906 0
0.016489 0.000908 0
0.016954 0.000907 0
0.017387 0.000904 0
0.017781 0.000899 0
0.018128 0.000891 0
0.018420 0.000881 0
0.018649 0.000868 0
0.018802 0.000852 0
0.018867 0.000832 0
0.018830 0.000810 0
0.018674 0.000783 0
0.018384 0.000752 0
0.017939 0.000716 0
0.017321 0.000675 0
0.016512 0.000628 0
0.015496 0.000576 0
0.014259 0.000517 0
0.012794 0.000452 0
0.011102 0.000380 0
0.009194 0.000303 0
0.007090 0.000221 0
0.004825 0.000134 0
0.002444 0.000045 0
0.000000 0.000000 0
0.000000 0.000000 0
0.000704 0.000067 0
0.001408 0.000133 0
0.002111 0.000199 0
0.002813 0.000263 0
0.003514 0.000326 0
0.004214 0.000387 0
0.004913 0.000445 0
0.005611 0.000501 0
0.006308 0.000554 0
0.007003 0.000604 0
0.007696 0.000651 0
0.008387 0.000695 0
0.009076 0.000736 0
0.009762 0.000773 0
0.010445 0.000808 0
0.011125 0.000839 0
0.011801 0.000867 0
0.012471 0.000892 0
0.013135 0.000914 0
0.013793 0.000933 0
0.014442 0.000949 0
0.015081 0.000963 0
0.015708 0.000974 0
0.016320 0.000982 0
0.016916 0.000989 0
0.017492 0.000992 0
0.018043 0.000993 0
0.018566 0.000992 0
0.019056 0.000989 0
0.019505 0.000983 0
0.019906 0.000975 0
0.020251 0.000963 0
0.020528 0.000949 0
0.020726 0.000932 0
0.020831 0.000912 0
0.020827 0.000888 0
0.020695 0.000859 0
0.020416 0.000826 0
0.019967 0.000788 0
0.019326 0.000744 0
0.018470 0.000694 0
0.017379 0.000637 0
0.016033 0.000573 0
0.014424 0.000501 0
0.012547 0.000423 0
0.010413 0.000338 0
0.008045 0.000246 0
0.005483 0.000150 0
0.002779 0.000050 0
0.000000 0.000000 0
0.000000 0.000000 0
0.000763 0.000074 0
0.001526 0.000148 0
0.002289 0.000221 0
0.003050 0.000292 0
0.003810 0.000361 0
0.004570 0.000428 0
0.005328 0.000493 0
0.006085 0.000554 0
0.006841 0.000612 0
0.007596 0.000667 0
0.008348 0.000719 0
0.009099 0.000766 0
0.009848 0.000811 0
0.010594 0.000851 0
0.011338 0.000888 0
0.012078 0.000922 0
0.012814 0.000952 0
0.013545 0.000978 0
0.014270 0.001001 0
0.014989 0.001021 0
0.015699 0.001038 0
0.016399 0.001053 0
0.017088 0.001064 0
0.017763 0.001072 0
0.018420 0.001078 0
0.019058 0.001082 0
0.019672 0.001083 0
0.020257 0.001081 0
0.020807 0.001077 0
0.021317 0.001071 0
0.021778 0.001062 0
0.022181 0.001050 0
0.022514 0.001035 0
0.022765 0.001016 0
0.022918 0.000995 0
0.022954 0.000969 0
0.022855 0.000939 0
0.022596 0.000904 0
0.022152 0.000863 0
0.021495 0.000816 0
0.020599 0.000763 0
0.019436 0.000702 0
0.017983 0.000632 0
0.016223 0.000555 0
0.014150 0.000469 0
0.011772 0.000375 0
0.009114 0.000274 0
0.006222 0.000167 0
0.003157 0.000056 0
0.000000 0.000000 0
0.000000 0.000000 0
0.000825 0.000082 0
0.001650 0.000164 0
0.002474 0.000245 0
0.003297 0.000323 0
0.004120 0.000400 0
0.004941 0.000474 0
0.005761 0.000545 0
0.006580 0.000612 0
0.007398 0.000676 0
0.008215 0.000736 0
0.009030 0.000792 0
0.009843 0.000844 0
0.010654 0.000891 0
0.011464 0.000935 0
0.012270 0.000975 0
0.013074 0.001010 0
0.013873 0.001042 0
0.014668 0.001070 0
0.015458 0.001094 0
0.016241 0.001115 0
0.017016 0.001133 0
0.017781 0.001147 0
0.018535 0.001159 0
0.019275 0.001167 0
0.019999 0.001173 0
0.020703 0.001176 0
0.021383 0.001176 0
0.022034 0.001174 0
0.022652 0.001170 0
0.023228 0.001162 0
0.023754 0.001152 0
0.024222 0.001139 0
0.024618 0.001123 0
0.024929 0.001104 0
0.025138 0.001081 0
0.025225 0.001054 0
0.025167 0.001022 0
0.024939 0.000985 0
0.024509 0.000942 0
0.023847 0.000893 0
0.022919 0.000836 0
0.021690 0.000770 0
0.020130 0.000696 0
0.018216 0.000612 0
0.015935 0.000518 0
0.013293 0.000415 0
0.010316 0.000304 0
0.007055 0.000185 0
0.003585 0.000062 0
0.000000 0.000000 0
0.000000 0.000000 0
0.000890 0.000091 0
0.001780 0.000182 0
0.002669 0.000271 0
0.003557 0.000358 0
0.004444 0.000443 0
0.005330 0.000524 0
0.006215 0.000602 0
0.007099 0.000676 0
0.007982 0.000746 0
0.008864 0.000811 0
0.009744 0.000872 0
0.010623 0.000928 0
0.011501 0.000979 0
0.012376 0.001026 0
0.013249 0.001068 0
0.014119 0.001106 0
0.014986 0.001139 0
0.015849 0.001168 0
0.016706 0.001194 0
0.017557 0.001215 0
0.018401 0.001233 0
0.019235 0.001248 0
0.020059 0.001259 0
0.020869 0.001267 0
0.021662 0.001272 0
0.022437 0.001275 0
0.023188 0.001275 0
0.023911 0.001272 0
0.024600 0.001266 0
0.025248 0.001258 0
0.025847 0.001247 0
0.026386 0.001233 0
0.026852 0.001216 0
0.027232 0.001195 0
0.027506 0.001171 0
0.027653 0.001142 0
0.027648 0.001109 0
0.027461 0.001070 0
0.027058 0.001025 0
0.026401 0.000973 0
0.025450 0.000912 0
0.024163 0.000843 0
0.022499 0.000763 0
0.020428 0.000672 0
0.017928 0.000571 0
0.015001 0.000458 0
0.011672 0.000336 0
0.007999 0.000205 0
0.004070 0.000069 0
0.000000 0.000000 0
0.000000 0.000000 0
0.000958 0.000101 0
0.001916 0.000202 0
0.002873 0.000300 0
0.003830 0.000397 0
0.004785 0.000490 0
0.005739 0.000580 0
0.006693 0.000665 0
0.007645 0.000746 0
0.008597 0.000822 0
0.009547 0.000893 0
0.010497 0.000959 0
0.011446 0.001019 0
0.012393 0.001074 0
0.013338 0.001124 0
0.014282 0.001169 0
0.015223 0.001209 0
0.016160 0.001244 0
0.017094 0.001274 0
0.018024 0.001300 0
0.018947 0.001322 0
0.019864 0.001340 0
0.020771 0.001354 0
0.021669 0.001365 0
0.022553 0.001373 0
0.023422 0.001377 0
0.024272 0.001379 0
0.025099 0.001378 0
0.025899 0.001374 0
0.026666 0.001367 0
0.027392 0.001358 0
0.028069 0.001345 0
0.028687 0.001330 0
0.029231 0.001312 0
0.029687 0.001290 0
0.030036 0.001265 0
0.030254 0.001235 0
0.030313 0.001200 0
0.030180 0.001159 0
0.029816 0.001112 0
0.029178 0.001057 0
0.028216 0.000994 0
0.026880 0.000920 0
0.025119 0.000835 0
0.022889 0.000738 0
0.020160 0.000628 0
0.016924 0.000505 0
0.013207 0.000371 0
0.009072 0.000227 0
0.004622 0.000077 0
0.000000 0.000000 0
0.000000 0.000000 0
0.001031 0.000112 0
0.002061 0.000224 0
0.003090 0.000333 0
0.004118 0.000440 0
0.005145 0.000543 0
0.006172 0.000642 0
0.007198 0.000736 0
0.008223 0.000824 0
0.009247 0.000907 0
0.010271 0.000984 0
0.011294 0.001055 0
0.012316 0.001120 0
0.013337 0.001179 0
0.014357 0.001232 0
0.015375 0.001279 0
0.016392 0.001320 0
0.017405 0.001357 0
0.018415 0.001388 0
0.019421 0.001415 0
0.020422 0.001437 0
0.021416 0.001454 0
0.022402 0.001468 0
0.023378 0.001478 0
0.024341 0.001485 0
0.025290 0.001489 0
0.026221 0.001489 0
0.027131 0.001486 0