# vtk DataFile Version 2.0
generated by CFD-lab course output (written by Tobias Neckel) 
ASCII

DATASET STRUCTURED_GRID
DIMENSIONS  51 51 1 
POINTS 2601 float

0.000000 0.000000 0
0.020000 0.000000 0
0.040000 0.000000 0
0.060000 0.000000 0
0.080000 0.000000 0
0.100000 0.000000 0
0.120000 0.000000 0
0.140000 0.000000 0
0.160000 0.000000 0
0.180000 0.000000 0
0.200000 0.000000 0
0.220000 0.000000 0
0.240000 0.000000 0
0.260000 0.000000 0
0.280000 0.000000 0
0.300000 0.000000 0
0.320000 0.000000 0
0.340000 0.000000 0
0.360000 0.000000 0
0.380000 0.000000 0
0.400000 0.000000 0
0.420000 0.000000 0
0.440000 0.000000 0
0.460000 0.000000 0
0.480000 0.000000 0
0.500000 0.000000 0
0.520000 0.000000 0
0.540000 0.000000 0
0.560000 0.000000 0
0.580000 0.000000 0
0.600000 0.000000 0
0.620000 0.000000 0
0.640000 0.000000 0
0.660000 0.000000 0
0.680000 0.000000 0
0.700000 0.000000 0
0.720000 0.000000 0
0.740000 0.000000 0
0.760000 0.000000 0
0.780000 0.000000 0
0.800000 0.000000 0
0.820000 0.000000 0
0.840000 0.000000 0
0.860000 0.000000 0
0.880000 0.000000 0
0.900000 0.000000 0
0.920000 0.000000 0
0.940000 0.000000 0
0.960000 0.000000 0
0.980000 0.000000 0
1.000000 0.000000 0
0.000000 0.020000 0
0.020000 0.020000 0
0.040000 0.020000 0
0.060000 0.020000 0
0.080000 0.020000 0
0.100000 0.020000 0
0.120000 0.020000 0
0.140000 0.020000 0
0.160000 0.020000 0
0.180000 0.020000 0
0.200000 0.020000 0
0.220000 0.020000 0
0.240000 0.020000 0
0.260000 0.020000 0
0.280000 0.020000 0
0.300000 0.020000 0
0.320000 0.020000 0
0.340000 0.020000 0
0.360000 0.020000 0
0.380000 0.020000 0
0.400000 0.020000 0
0.420000 0.020000 0
0.440000 0.020000 0
0.460000 0.020000 0
0.480000 0.020000 0
0.500000 0.020000 0
0.520000 0.020000 0
0.540000 0.020000 0
0.560000 0.020000 0
0.580000 0.020000 0
0.600000 0.020000 0
0.620000 0.020000 0
0.640000 0.020000 0
0.660000 0.020000 0
0.680000 0.020000 0
0.700000 0.020000 0
0.720000 0.020000 0
0.740000 0.020000 0
0.760000 0.020000 0
0.780000 0.020000 0
0.800000 0.020000 0
0.820000 0.020000 0
0.840000 0.020000 0
0.860000 0.020000 0
0.880000 0.020000 0
0.900000 0.020000 0
0.920000 0.020000 0
0.940000 0.020000 0
0.960000 0.020000 0
0.980000 0.020000 0
1.000000 0.020000 0
0.000000 0.040000 0
0.020000 0.040000 0
0.040000 0.040000 0
0.060000 0.040000 0
0.080000 0.040000 0
0.100000 0.040000 0
0.120000 0.040000 0
0.140000 0.040000 0
0.160000 0.040000 0
0.180000 0.040000 0
0.200000 0.040000 0
0.220000 0.040000 0
0.240000 0.040000 0
0.260000 0.040000 0
0.280000 0.040000 0
0.300000 0.040000 0
0.320000 0.040000 0
0.340000 0.040000 0
0.360000 0.040000 0
0.380000 0.040000 0
0.400000 0.040000 0
0.420000 0.040000 0
0.440000 0.040000 0
0.460000 0.040000 0
0.480000 0.040000 0
0.500000 0.040000 0
0.520000 0.040000 0
0.540000 0.040000 0
0.560000 0.040000 0
0.580000 0.040000 0
0.600000 0.040000 0
0.620000 0.040000 0
0.640000 0.040000 0
0.660000 0.040000 0
0.680000 0.040000 0
0.700000 0.040000 0
0.720000 0.040000 0
0.740000 0.040000 0
0.760000 0.040000 0
0.780000 0.040000 0
0.800000 0.040000 0
0.820000 0.040000 0
0.840000 0.040000 0
0.860000 0.040000 0
0.880000 0.040000 0
0.900000 0.040000 0
0.920000 0.040000 0
0.940000 0.040000 0
0.960000 0.040000 0
0.980000 0.040000 0
1.000000 0.040000 0
0.000000 0.060000 0
0.020000 0.060000 0
0.040000 0.060000 0
0.060000 0.060000 0
0.080000 0.060000 0
0.100000 0.060000 0
0.120000 0.060000 0
0.140000 0.060000 0
0.160000 0.060000 0
0.180000 0.060000 0
0.200000 0.060000 0
0.220000 0.060000 0
0.240000 0.060000 0
0.260000 0.060000 0
0.280000 0.060000 0
0.300000 0.060000 0
0.320000 0.060000 0
0.340000 0.060000 0
0.360000 0.060000 0
0.380000 0.060000 0
0.400000 0.060000 0
0.420000 0.060000 0
0.440000 0.060000 0
0.460000 0.060000 0
0.480000 0.060000 0
0.500000 0.060000 0
0.520000 0.060000 0
0.540000 0.060000 0
0.560000 0.060000 0
0.580000 0.060000 0
0.600000 0.060000 0
0.620000 0.060000 0
0.640000 0.060000 0
0.660000 0.060000 0
0.680000 0.060000 0
0.700000 0.060000 0
0.720000 0.060000 0
0.740000 0.060000 0
0.760000 0.060000 0
0.780000 0.060000 0
0.800000 0.060000 0
0.820000 0.060000 0
0.840000 0.060000 0
0.860000 0.060000 0
0.880000 0.060000 0
0.900000 0.060000 0
0.920000 0.060000 0
0.940000 0.060000 0
0.960000 0.060000 0
0.980000 0.060000 0
1.000000 0.060000 0
0.000000 0.080000 0
0.020000 0.080000 0
0.040000 0.080000 0
0.060000 0.080000 0
0.080000 0.080000 0
0.100000 0.080000 0
0.120000 0.080000 0
0.140000 0.080000 0
0.160000 0.080000 0
0.180000 0.080000 0
0.200000 0.080000 0
0.220000 0.080000 0
0.240000 0.080000 0
0.260000 0.080000 0
0.280000 0.080000 0
0.300000 0.080000 0
0.320000 0.080000 0
0.340000 0.080000 0
0.360000 0.080000 0
0.380000 0.080000 0
0.400000 0.080000 0
0.420000 0.080000 0
0.440000 0.080000 0
0.460000 0.080000 0
0.480000 0.080000 0
0.500000 0.080000 0
0.520000 0.080000 0
0.540000 0.080000 0
0.560000 0.080000 0
0.580000 0.080000 0
0.600000 0.080000 0
0.620000 0.080000 0
0.640000 0.080000 0
0.660000 0.080000 0
0.680000 0.080000 0
0.700000 0.080000 0
0.720000 0.080000 0
0.740000 0.080000 0
0.760000 0.080000 0
0.780000 0.080000 0
0.800000 0.080000 0
0.820000 0.080000 0
0.840000 0.080000 0
0.860000 0.080000 0
0.880000 0.080000 0
0.900000 0.080000 0
0.920000 0.080000 0
0.940000 0.080000 0
0.960000 0.080000 0
0.980000 0.080000 0
1.000000 0.080000 0
0.000000 0.100000 0
0.020000 0.100000 0
0.040000 0.100000 0
0.060000 0.100000 0
0.080000 0.100000 0
0.100000 0.100000 0
0.120000 0.100000 0
0.140000 0.100000 0
0.160000 0.100000 0
0.180000 0.100000 0
0.200000 0.100000 0
0.220000 0.100000 0
0.240000 0.100000 0
0.260000 0.100000 0
0.280000 0.100000 0
0.300000 0.100000 0
0.320000 0.100000 0
0.340000 0.100000 0
0.360000 0.100000 0
0.380000 0.100000 0
0.400000 0.100000 0
0.420000 0.100000 0
0.440000 0.100000 0
0.460000 0.100000 0
0.480000 0.100000 0
0.500000 0.100000 0
0.520000 0.100000 0
0.540000 0.100000 0
0.560000 0.100000 0
0.580000 0.100000 0
0.600000 0.100000 0
0.620000 0.100000 0
0.640000 0.100000 0
0.660000 0.100000 0
0.680000 0.100000 0
0.700000 0.100000 0
0.720000 0.100000 0
0.740000 0.100000 0
0.760000 0.100000 0
0.780000 0.100000 0
0.800000 0.100000 0
0.820000 0.100000 0
0.840000 0.100000 0
0.860000 0.100000 0
0.880000 0.100000 0
0.900000 0.100000 0
0.920000 0.100000 0
0.940000 0.100000 0
0.960000 0.100000 0
0.980000 0.100000 0
1.000000 0.100000 0
0.000000 0.120000 0
0.020000 0.120000 0
0.040000 0.120000 0
0.060000 0.120000 0
0.080000 0.120000 0
0.100000 0.120000 0
0.120000 0.120000 0
0.140000 0.120000 0
0.160000 0.120000 0
0.180000 0.120000 0
0.200000 0.120000 0
0.220000 0.120000 0
0.240000 0.120000 0
0.260000 0.120000 0
0.280000 0.120000 0
0.300000 0.120000 0
0.320000 0.120000 0
0.340000 0.120000 0
0.360000 0.120000 0
0.380000 0.120000 0
0.400000 0.120000 0
0.420000 0.120000 0
0.440000 0.120000 0
0.460000 0.120000 0
0.480000 0.120000 0
0.500000 0.120000 0
0.520000 0.120000 0
0.540000 0.120000 0
0.560000 0.120000 0
0.580000 0.120000 0
0.600000 0.120000 0
0.620000 0.120000 0
0.640000 0.120000 0
0.660000 0.120000 0
0.680000 0.120000 0
0.700000 0.120000 0
0.720000 0.120000 0
0.740000 0.120000 0
0.760000 0.120000 0
0.780000 0.120000 0
0.800000 0.120000 0
0.820000 0.120000 0
0.840000 0.120000 0
0.860000 0.120000 0
0.880000 0.120000 0
0.900000 0.120000 0
0.920000 0.120000 0
0.940000 0.120000 0
0.960000 0.120000 0
0.980000 0.120000 0
1.000000 0.120000 0
0.000000 0.140000 0
0.020000 0.140000 0
0.040000 0.140000 0
0.060000 0.140000 0
0.080000 0.140000 0
0.100000 0.140000 0
0.120000 0.140000 0
0.140000 0.140000 0
0.160000 0.140000 0
0.180000 0.140000 0
0.200000 0.140000 0
0.220000 0.140000 0
0.240000 0.140000 0
0.260000 0.140000 0
0.280000 0.140000 0
0.300000 0.140000 0
0.320000 0.140000 0
0.340000 0.140000 0
0.360000 0.140000 0
0.380000 0.140000 0
0.400000 0.140000 0
0.420000 0.140000 0
0.440000 0.140000 0
0.460000 0.140000 0
0.480000 0.140000 0
0.500000 0.140000 0
0.520000 0.140000 0
0.540000 0.140000 0
0.560000 0.140000 0
0.580000 0.140000 0
0.600000 0.140000 0
0.620000 0.140000 0
0.640000 0.140000 0
0.660000 0.140000 0
0.680000 0.140000 0
0.700000 0.140000 0
0.720000 0.140000 0
0.740000 0.140000 0
0.760000 0.140000 0
0.780000 0.140000 0
0.800000 0.140000 0
0.820000 0.140000 0
0.840000 0.140000 0
0.860000 0.140000 0
0.880000 0.140000 0
0.900000 0.140000 0
0.920000 0.140000 0
0.940000 0.140000 0
0.960000 0.140000 0
0.980000 0.140000 0
1.000000 0.140000 0
0.000000 0.160000 0
0.020000 0.160000 0
0.040000 0.160000 0
0.060000 0.160000 0
0.080000 0.160000 0
0.100000 0.160000 0
0.120000 0.160000 0
0.140000 0.160000 0
0.160000 0.160000 0
0.180000 0.160000 0
0.200000 0.160000 0
0.220000 0.160000 0
0.240000 0.160000 0
0.260000 0.160000 0
0.280000 0.160000 0
0.300000 0.160000 0
0.320000 0.160000 0
0.340000 0.160000 0
0.360000 0.160000 0
0.380000 0.160000 0
0.400000 0.160000 0
0.420000 0.160000 0
0.440000 0.160000 0
0.460000 0.160000 0
0.480000 0.160000 0
0.500000 0.160000 0
0.520000 0.160000 0
0.540000 0.160000 0
0.560000 0.160000 0
0.580000 0.160000 0
0.600000 0.160000 0
0.620000 0.160000 0
0.640000 0.160000 0
0.660000 0.160000 0
0.680000 0.160000 0
0.700000 0.160000 0
0.720000 0.160000 0
0.740000 0.160000 0
0.760000 0.160000 0
0.780000 0.160000 0
0.800000 0.160000 0
0.820000 0.160000 0
0.840000 0.160000 0
0.860000 0.160000 0
0.880000 0.160000 0
0.900000 0.160000 0
0.920000 0.160000 0
0.940000 0.160000 0
0.960000 0.160000 0
0.980000 0.160000 0
1.000000 0.160000 0
0.000000 0.180000 0
0.020000 0.180000 0
0.040000 0.180000 0
0.060000 0.180000 0
0.080000 0.180000 0
0.100000 0.180000 0
0.120000 0.180000 0
0.140000 0.180000 0
0.160000 0.180000 0
0.180000 0.180000 0
0.200000 0.180000 0
0.220000 0.180000 0
0.240000 0.180000 0
0.260000 0.180000 0
0.280000 0.180000 0
0.300000 0.180000 0
0.320000 0.180000 0
0.340000 0.180000 0
0.360000 0.180000 0
0.380000 0.180000 0
0.400000 0.180000 0
0.420000 0.180000 0
0.440000 0.180000 0
0.460000 0.180000 0
0.480000 0.180000 0
0.500000 0.180000 0
0.520000 0.180000 0
0.540000 0.180000 0
0.560000 0.180000 0
0.580000 0.180000 0
0.600000 0.180000 0
0.620000 0.180000 0
[...]
POINT_DATA 2601 

VECTORS velocity float
0.000000 0.000000 0
0.000000 0.000000 0
0.000000 0.000000 0
0.000000 0.000000 0
0.000000 0.000000 0
0.000000 0.000000 0
0.000000 0.000000 0
0.000000 0.000000 0
0.000000 0.000000 0
0.000000 0.000000 0
0.000000 0.000000 0
0.000000 0.000000 0
0.000000 0.000000 0
0.000000 0.000000 0
0.000000 0.000000 0
0.000000 0.000000 0
0.000000 0.000000 0
0.000000 0.000000 0
0.000000 0.000000 0
0.000000 0.000000 0
0.000000 0.000000 0
0.000000 0.000000 0
0.000000 0.000000 0
0.000000 0.000000 0
0.000000 0.000000 0
0.000000 0.000000 0
0.000000 0.000000 0
0.000000 0.000000 0
0.000000 0.000000 0
0.000000 0.000000 0
0.000000 0.000000 0
0.000000 0.000000 0
0.000000 0.000000 0
0.000000 0.000000 0
0.000000 0.000000 0
0.000000 0.000000 0
0.000000 0.000000 0
0.000000 0.000000 0
0.000000 0.000000 0
0.000000 0.000000 0
0.000000 0.000000 0
0.000000 0.000000 0
0.000000 0.000000 0
0.000000 0.000000 0
0.000000 0.000000 0
0.000000 0.000000 0
0.000000 0.000000 0
0.000000 0.000000 0
0.000000 0.000000 0
0.000000 0.000000 0
0.000000 0.000000 0
0.000000 0.000000 0
0.000013 0.000001 0
0.000026 0.000002 0
0.000039 0.000003 0
0.000052 0.000004 0
0.000065 0.000005 0
0.000078 0.000006 0
0.000091 0.000006 0
0.000104 0.000007 0
0.000116 0.000008 0
0.000129 0.000008 0
0.000142 0.000009 0
0.000154 0.000009 0
0.000167 0.000010 0
0.000179 0.000010 0
0.000191 0.000010 0
0.000204 0.000010 0
0.000215 0.000010 0
0.000227 0.000010 0
0.000238 0.000010 0
0.000250 0.000010 0
0.000260 0.000010 0
0.000271 0.000010 0
0.000281 0.000009 0
0.000290 0.000009 0
0.000299 0.000009 0
0.000307 0.000008 0
0.000314 0.000008 0
0.000320 0.000007 0
0.000325 0.000007 0
0.000329 0.000007 0
0.000332 0.000006 0
0.000333 0.000006 0
0.000333 0.000005 0
0.000331 0.000005 0
0.000327 0.000005 0
0.000321 0.000004 0
0.000312 0.000004 0
0.000302 0.000003 0
0.000289 0.000003 0
0.000273 0.000003 0
0.000255 0.000002 0
0.000235 0.000002 0
0.000212 0.000002 0
0.000186 0.000001 0
0.000159 0.000001 0
0.000129 0.000001 0
0.000099 0.000001 0
0.000066 0.000000 0
0.000033 0.000000 0
0.000000 0.000000 0
0.000000 0.000000 0
0.000026 0.000002 0
0.000053 0.000004 0
0.000079 0.000006 0
0.000105 0.000008 0
0.000131 0.000010 0
0.000158 0.000011 0
0.000184 0.000013 0
0.000210 0.000015 0
0.000236 0.000016 0
0.000262 0.000017 0
0.000287 0.000018 0
0.000313 0.000019 0
0.000338 0.000020 0
0.000363 0.000020 0
0.000388 0.000021 0
0.000412 0.000021 0
0.000436 0.000021 0
0.000460 0.000021 0
0.000483 0.000021 0
0.000506 0.000020 0
0.000528 0.000020 0
0.000549 0.000019 0
0.000569 0.000019 0
0.000588 0.000018 0
0.000605 0.000018 0
0.000622 0.000017 0
0.000636 0.000016 0
0.000649 0.000015 0
0.000660 0.000014 0
0.000668 0.000013 0
0.000674 0.000013 0
0.000677 0.000012 0
0.000676 0.000011 0
0.000672 0.000010 0
0.000664 0.000009 0
0.000652 0.000008 0
0.000635 0.000008 0
0.000614 0.000007 0
0.000587 0.000006 0
0.000556 0.000006 0
0.000519 0.000005 0
0.000478 0.000004 0
0.000431 0.000004 0
0.000379 0.000003 0
0.000324 0.000002 0
0.000264 0.000002 0
0.000201 0.000001 0
0.000135 0.000001 0
0.000068 0.000000 0
0.000000 0.000000 0
0.000000 0.000000 0
0.000040 0.000003 0
0.000081 0.000006 0
0.000121 0.000009 0
0.000161 0.000012 0
0.000201 0.000015 0
0.000241 0.000018 0
0.000281 0.000020 0
0.000321 0.000022 0
0.000361 0.000024 0
0.000401 0.000026 0
0.000440 0.000028 0
0.000479 0.000029 0
0.000518 0.000030 0
0.000556 0.000031 0
0.000594 0.000032 0
0.000632 0.000032 0
0.000669 0.000032 0
0.000705 0.000032 0
0.000741 0.000032 0
0.000775 0.000031 0
0.000809 0.000031 0
0.000841 0.000030 0
0.000872 0.000029 0
0.000901 0.000028 0
0.000929 0.000027 0
0.000954 0.000026 0
0.000977 0.000025 0
0.000997 0.000023 0
0.001013 0.000022 0
0.001027 0.000021 0
0.001036 0.000019 0
0.001040 0.000018 0
0.001040 0.000017 0
0.001034 0.000016 0
0.001022 0.000014 0
0.001004 0.000013 0
0.000979 0.000012 0
0.000946 0.000011 0
0.000906 0.000010 0
0.000858 0.000009 0
0.000802 0.000008 0
0.000738 0.000007 0
0.000666 0.000006 0
0.000586 0.000005 0
0.000500 0.000004 0
0.000408 0.000003 0
0.000311 0.000002 0
0.000210 0.000001 0
0.000105 0.000000 0
0.000000 0.000000 0
0.000000 0.000000 0
0.000055 0.000004 0
0.000111 0.000009 0
0.000166 0.000013 0
0.000221 0.000017 0
0.000276 0.000021 0
0.000331 0.000024 0
0.000386 0.000028 0
0.000441 0.000031 0
0.000495 0.000034 0
0.000549 0.000036 0
0.000603 0.000039 0
0.000657 0.000040 0
0.000710 0.000042 0
0.000763 0.000043 0
0.000816 0.000044 0
0.000867 0.000044 0
0.000918 0.000045 0
0.000968 0.000045 0
0.001017 0.000044 0
0.001065 0.000044 0
0.001111 0.000043 0
0.001156 0.000042 0
0.001199 0.000040 0
0.001239 0.000039 0
0.001277 0.000038 0
0.001312 0.000036 0
0.001344 0.000034 0
0.001372 0.000033 0
0.001396 0.000031 0
0.001414 0.000029 0
0.001428 0.000027 0
0.001435 0.000025 0
0.001435 0.000024 0
0.001428 0.000022 0
0.001413 0.000020 0
0.001388 0.000018 0
0.001354 0.000017 0
0.001310 0.000015 0
0.001255 0.000014 0
0.001189 0.000012 0
0.001112 0.000011 0
0.001024 0.000009 0
0.000925 0.000008 0
0.000815 0.000007 0
0.000696 0.000005 0
0.000568 0.000004 0
0.000433 0.000003 0
0.000292 0.000002 0
0.000147 0.000001 0
0.000000 0.000000 0
0.000000 0.000000 0
0.000072 0.000006 0
0.000143 0.000011 0
0.000215 0.000017 0
0.000286 0.000022 0
0.000357 0.000027 0
0.000429 0.000032 0
0.000500 0.000037 0
0.000571 0.000041 0
0.000641 0.000044 0
0.000712 0.000048 0
0.000782 0.000051 0
0.000851 0.000053 0
0.000920 0.000055 0
0.000989 0.000057 0
0.001057 0.000058 0
0.001124 0.000058 0
0.001190 0.000059 0
0.001255 0.000058 0
0.001319 0.000058 0
0.001381 0.000057 0
0.001442 0.000056 0
0.001500 0.000055 0
0.001556 0.000053 0
0.001609 0.000051 0
0.001659 0.000049 0
0.001706 0.000047 0
0.001748 0.000045 0
0.001785 0.000043 0
0.001817 0.000041 0
0.001842 0.000038 0
0.001860 0.000036 0
0.001871 0.000034 0
0.001873 0.000031 0
0.001865 0.000029 0
0.001846 0.000027 0
0.001815 0.000025 0
0.001772 0.000022 0
0.001716 0.000020 0
0.001646 0.000018 0
0.001561 0.000016 0
0.001461 0.000014 0
0.001346 0.000013 0
0.001216 0.000011 0
0.001073 0.000009 0
0.000916 0.000007 0
0.000748 0.000006 0
0.000570 0.000004 0
0.000385 0.000002 0
0.000194 0.000001 0
0.000000 0.000000 0
0.000000 0.000000 0
0.000090 0.000007 0
0.000179 0.000014 0
0.000269 0.000021 0
0.000358 0.000028 0
0.000447 0.000035 0
0.000536 0.000041 0
0.000625 0.000046 0
0.000714 0.000052 0
0.000802 0.000056 0
0.000891 0.000061 0
0.000978 0.000064 0
0.001066 0.000067 0
0.001152 0.000070 0
0.001238 0.000072 0
0.001324 0.000073 0
0.001408 0.000074 0
0.001491 0.000074 0
0.001573 0.000074 0
0.001653 0.000074 0
0.001732 0.000073 0
0.001808 0.000071 0
0.001882 0.000070 0
0.001953 0.000068 0
0.002020 0.000066 0
0.002084 0.000063 0
0.002143 0.000060 0
0.002197 0.000058 0
0.002245 0.000055 0
0.002286 0.000052 0
0.002320 0.000049 0
0.002345 0.000046 0
0.002360 0.000043 0
0.002364 0.000040 0
0.002355 0.000037 0
0.002334 0.000034 0
0.002298 0.000032 0
0.002245 0.000029 0
0.002176 0.000026 0
0.002089 0.000024 0
0.001983 0.000021 0
0.001858 0.000019 0
0.001714 0.000016 0
0.001550 0.000014 0
0.001369 0.000012 0
0.001170 0.000010 0
0.000956 0.000007 0
0.000729 0.000005 0
0.000492 0.000003 0
0.000248 0.000001 0
0.000000 0.000000 0
0.000000 0.000000 0
0.000110 0.000009 0
0.000219 0.000018 0
0.000329 0.000027 0
0.000438 0.000035 0
0.000547 0.000043 0
0.000656 0.000051 0
0.000765 0.000058 0
0.000874 0.000064 0
0.000982 0.000070 0
0.001090 0.000075 0
0.001197 0.000080 0
0.001304 0.000084 0
0.001411 0.000087 0
0.001516 0.000089 0
0.001621 0.000091 0
0.001724 0.000092 0
0.001827 0.000093 0
0.001927 0.000092 0
0.002026 0.000092 0
0.002123 0.000091 0
0.002217 0.000089 0
0.002309 0.000087 0
0.002396 0.000084 0
0.002480 0.000082 0
0.002560 0.000079 0
0.002634 0.000076 0
0.002702 0.000072 0
0.002762 0.000069 0
0.002815 0.000065 0
0.002859 0.000062 0
0.002891 0.000058 0
0.002912 0.000054 0
0.002920 0.000051 0
0.002913 0.000047 0
0.002889 0.000044 0
0.002847 0.000040 0
0.002786 0.000037 0
0.002703 0.000033 0
0.002598 0.000030 0
0.002470 0.000027 0
0.002317 0.000024 0
0.002139 0.000021 0
0.001937 0.000018 0
0.001712 0.000015 0
0.001465 0.000012 0
0.001198 0.000010 0
0.000914 0.000007 0
0.000617 0.000004 0
0.000311 0.000001 0
0.000000 0.000000 0
0.000000 0.000000 0
0.000132 0.000011 0
0.000264 0.000022 0
0.000396 0.000033 0
0.000527 0.000043 0
0.000659 0.000053 0
0.000790 0.000062 0
0.000921 0.000071 0
0.001052 0.000079 0
0.001183 0.000086 0
0.001313 0.000093 0
0.001442 0.000098 0
0.001572 0.000103 0
0.001700 0.000107 0
0.001827 0.000110 0
0.001954 0.000112 0
0.002079 0.000113 0
0.002203 0.000114 0
0.002325 0.000114 0
0.002445 0.000113 0
0.002563 0.000111 0
0.002677 0.000109 0
0.002789 0.000107 0
0.002896 0.000104 0
0.002999 0.000101 0
0.003097 0.000097 0
0.003188 0.000093 0
0.003272 0.000089 0
0.003348 0.000085 0
0.003414 0.000081 0
0.003470 0.000076 0
0.003513 0.000072 0
0.003542 0.000067 0
0.003555 0.000063 0
0.003550 0.000059 0
0.003525 0.000054 0
0.003478 0.000050 0
0.003408 0.000046 0
0.003311 0.000042 0
0.003186 0.000038 0
0.003033 0.000034 0
0.002849 0.000030 0
0.002634 0.000027 0
0.002388 0.000023 0
0.002113 0.000019 0
0.001810 0.000016 0
0.001481 0.000012 0
0.001131 0.000009 0
0.000764 0.000005 0
0.000385 0.000002 0
0.000000 0.000000 0
0.000000 0.000000 0
0.000157 0.000013 0
0.000314 0.000027 0
0.000471 0.000040 0
0.000628 0.000052 0
0.000784 0.000064 0
0.000941 0.000076 0
0.001097 0.000086 0
0.001253 0.000096 0
0.001408 0.000105 0
0.001563 0.000112 0
0.001718 0.000119 0
0.001872 0.000125 0
0.002025 0.000130 0
0.002177 0.000133 0
0.002328 0.000136 0
0.002478 0.000137 0
0.002627 0.000138 0
0.002773 0.000138 0
0.002917 0.000137 0
0.003058 0.000135 0
0.003196 0.000133 0
0.003330 0.000130 0
0.003460 0.000127 0
0.003585 0.000123 0
0.003704 0.000118 0
0.003815 0.000114 0
0.003919 0.000109 0
0.004012 0.000104 0
0.004095 0.000099 0
0.004165 0.000093 0
0.004221 0.000088 0
0.004260 0.000083 0
0.004280 0.000078 0
0.004280 0.000072 0
0.004255 0.000067 0
0.004204 0.000062 0
0.004125 0.000057 0
0.004013 0.000052 0
0.003868 0.000047 0
0.003687 0.000043 0
0.003469 0.000038 0
0.003212 0.000033 0
0.002917 0.000029 0
0.002584 0.000024 0
0.002216 0.000020 0
0.001815 0.000015 0
0.001388 0.000011 0
0.000938 0.000007 0
0.000473 0.000002 0
0.000000 0.000000 0
0.000000 0.000000 0
0.000185 0.000016 0
0.000370 0.000032 0
0.000555 0.000048 0
0.000740 0.000063 0
0.000925 0.000078 0
0.001110 0.000091 0
0.001294 0.000104 0
0.001478 0.000116 0
0.001662 0.000126 0
0.001845 0.000136 0
0.002028 0.000144 0
0.002210 0.000151 0
0.002391 0.000156 0
0.002571 0.000160 0
0.002750 0.000164 0
0.002928 0.000166 0
0.003104 0.000167 0
0.003277 0.000166 0
0.003449 0.000165 0
0.003617 0.000163 0
0.003782 0.000161 0
0.003942 0.000157 0
0.004098 0.000153 0
0.004248 0.000148 0
0.004391 0.000143 0
0.004526 0.000138 0
0.004652 0.000132 0
0.004767 0.000126 0
0.004869 0.000120 0
0.004957 0.000114 0
0.005028 0.000107 0
0.005081 0.000101 0
0.005111 0.000095 0
0.005117 0.000089 0
0.005094 0.000082 0
0.005041 0.000076 0
0.004953 0.000070 0
0.004827 0.000064 0
0.004660 0.000059 0
0.004450 0.000053 0
0.004193 0.000047 0
0.003889 0.000042 0
0.003537 0.000036 0
0.003138 0.000030 0
0.002695 0.000025 0
0.002211 0.000019 0
0.001691 0.000014 0
0.001144 0.000008 0
0.000577 0.000003 0
0.000000 0.000000 0
0.000000 0.000000 0
0.000217 0.000019 0
0.000434 0.000039 0
0.000650 0.000058 0
0.000867 0.000076 0
0.001083 0.000093 0
0.001300 0.000109 0
0.001516 0.000125 0
0.001731 0.000139 0
0.001947 0.000151 0
0.002162 0.000162 0
0.002376 0.000172 0
0.002590 0.000180 0
0.002802 0.000187 0
0.003014 0.000192 0
0.003225 0.000196 0
0.003434 0.000198 0
0.003641 0.000200 0
0.003846 0.000199 0
0.004048 0.000198 0
0.004247 0.000196 0
0.004443 0.000193 0
0.004633 0.000188 0
0.004818 0.000184 0
0.004997 0.000178 0
0.005168 0.000172 0
0.005331 0.000166 0
0.005483 0.000159 0
0.005623 0.000152 0
0.005749 0.000145 0
0.005858 0.000137 0
0.005949 0.000130 0
0.006017 0.000123 0
0.006061 0.000115 0
0.006076 0.000108 0
0.006058 0.000100 0
0.006004 0.000093 0
0.005909 0.000086 0
0.005769 0.000079 0
0.005580 0.000072 0
0.005337 0.000065 0
0.005039 0.000058 0
0.004682 0.000051 0
0.004266 0.000045 0
0.003791 0.000038 0
0.003261 0.000031 0
0.002678 0.000024 0
0.002051 0.000017 0
0.001389 0.000010 0
0.000701 0.000003 0
0.000000 0.000000 0
0.000000 0.000000 0
0.000252 0.000023 0
0.000505 0.000046 0
0.000757 0.000069 0
0.001009 0.000090 0
0.001261 0.000111 0
0.001513 0.000131 0
0.001764 0.000149 0
0.002016 0.000165 0
0.002266 0.000180 0
0.002517 0.000194 0
0.002767 0.000205 0
0.003016 0.000215 0
0.003265 0.000223 0
0.003512 0.000229 0
0.003758 0.000234 0
0.004003 0.000236 0
0.004245 0.000238 0
0.004486 0.000238 0
0.004723 0.000236 0
0.004957 0.000233 0
0.005187 0.000230 0
0.005412 0.000225 0
0.005631 0.000219 0
0.005843 0.000213 0
0.006047 0.000206 0
0.006241 0.000198 0
0.006423 0.000191 0
0.006593 0.000182 0
0.006746 0.000174 0
0.006881 0.000165 0
0.006995 0.000156 0
0.007084 0.000148 0
0.007145 0.000139 0
0.007173 0.000130 0
0.007163 0.000122 0
0.007111 0.000113 0
0.007011 0.000105 0
0.006857 0.000096 0
0.006645 0.000088 0
0.006369 0.000080 0
0.006025 0.000072 0
0.005610 0.000063 0
0.005122 0.000055 0
0.004560 0.000047 0
0.003929 0.000038 0
0.003232 0.000030 0
0.002479 0.000022 0
0.001680 0.000013 0
0.000848 0.000004 0
0.000000 0.000000 0
0.000000 0.000000 0
0.000292 0.000028 0
0.000584 0.000055 0
0.000876 0.000082 0
0.001168 0.000107 0
0.001460 0.000132 0
0.001752 0.000155 0
0.002043 0.000177 0
0.002334 0.000196 0
0.002625 0.000214 0
0.002915 0.000230 0
0.003205 0.000243 0
0.003494 0.000255 0
0.003783 0.000264 0
0.004070 0.000272 0
0.004356 0.000277 0
0.004641 0.000280 0
0.004923 0.000282 0
0.005203 0.000282 0
0.005480 0.000280 0
0.005754 0.000277 0
0.006023 0.000273 0
0.006287 0.000267 0
0.006544 0.000260 0
0.006795 0.000253 0
0.007036 0.000245 0
0.007266 0.000236 0
0.007485 0.000227 0
0.007688 0.000217 0
0.007874 0.000208 0
0.008040 0.000198 0
0.008183 0.000187 0
0.008297 0.000177 0
0.008379 0.000167 0
0.008424 0.000157 0
0.008426 0.000147 0
0.008379 0.000137 0
0.008277 0.000127 0
0.008112 0.000117 0
0.007877 0.000107 0
0.007567 0.000097 0
0.007174 0.000087 0
0.006695 0.000078 0
0.006125 0.000068 0
0.005465 0.000058 0
0.004717 0.000047 0
0.003887 0.000037 0
0.002985 0.000027 0
0.002025 0.000016 0
0.001023 0.000005 0
0.000000 0.000000 0
0.000000 0.000000 0
0.000337 0.000033 0
0.000673 0.000065 0
0.001010 0.000097 0
0.001346 0.000127 0
0.001682 0.000156 0
0.002018 0.000184 0
0.002354 0.000209 0
0.002689 0.000232 0
0.003025 0.000253 0
0.003360 0.000272 0
0.003694 0.000288 0
0.004028 0.000301 0
0.004362 0.000312 0
0.004694 0.000321 0
0.005025 0.000327 0
0.005354 0.000331 0
0.005682 0.000333 0
0.006007 0.000333 0
0.006329 0.000331 0
0.006647 0.000327 0
0.006960 0.000322 0
0.007268 0.000316 0
0.007570 0.000308 0
0.007863 0.000299 0
0.008147 0.000290 0
0.008420 0.000280 0
0.008679 0.000269 0
0.008922 0.000258 0
0.009146 0.000247 0
0.009349 0.000235 0
0.009525 0.000223 0
0.009670 0.000211 0
0.009780 0.000200 0
0.009847 0.000188 0
0.009866 0.000176 0
0.009829 0.000164 0
0.009728 0.000153 0
0.009554 0.000141 0
0.009299 0.000130 0
0.008953 0.000118 0
0.008509 0.000106 0
0.007959 0.000095 0
0.007300 0.000083 0
0.006528 0.000071 0
0.005647 0.000058 0
0.004663 0.000046 0
0.003586 0.000033 0
0.002436 0.000020 0
0.001232 0.000007 0
0.000000 0.000000 0
0.000000 0.000000 0
0.000386 0.000039 0
0.000772 0.000077 0
0.001158 0.000114 0
0.001544 0.000150 0
0.001929 0.000184 0
0.002315 0.000217 0
0.002700 0.000247 0
0.003085 0.000274 0
0.003471 0.000298 0
0.003855 0.000320 0
0.004240 0.000339 0
0.004624 0.000355 0
0.005007 0.000368 0
0.005389 0.000378 0
0.005771 0.000385 0
0.006150 0.000389 0
0.006528 0.000392 0
0.006903 0.000391 0
0.007275 0.000389 0
0.007644 0.000385 0
0.008007 0.000379 0
0.008365 0.000371 0
0.008716 0.000363 0
0.009059 0.000353 0
0.009391 0.000342 0
0.009712 0.000330 0
0.010018 0.000318 0
0.010307 0.000305 0
0.010576 0.000292 0
0.010821 0.000278 0
0.011037 0.000265 0
0.011220 0.000251 0
0.011363 0.000238 0
0.011459 0.000224 0
0.011501 0.000210 0
0.011480 0.000197 0
0.011385 0.000183 0
0.011206 0.000170 0
0.010933 0.000156 0
0.010553 0.000143 0
0.010055 0.000129 0
0.009431 0.000115 0
0.008672 0.000101 0
0.007775 0.000086 0
0.006742 0.000071 0
0.005578 0.000056 0
0.004299 0.000040 0
0.002923 0.000024 0
0.001480 0.000008 0
0.000000 0.000000 0
0.000000 0.000000 0
0.000441 0.000046 0
0.000882 0.000091 0
0.001323 0.000134 0
0.001764 0.000177 0
0.002204 0.000217 0
0.002645 0.000255 0
0.003085 0.000290 0
0.003525 0.000322 0
0.003966 0.000351 0
0.004406 0.000376 0
0.004846 0.000398 0
0.005285 0.000416 0
0.005724 0.000431 0
0.006163 0.000443 0
0.006600 0.000451 0
0.007036 0.000456 0
0.007470 0.000459 0
0.007901 0.000459 0
0.008329 0.000456 0
0.008754 0.000451 0
0.009174 0.000444 0
0.009587 0.000435 0
0.009994 0.000425 0
0.010392 0.000414 0
0.010780 0.000401 0
0.011155 0.000388 0
0.011514 0.000374 0
0.011856 0.000359 0
0.012176 0.000344 0
0.012471 0.000328 0
0.012735 0.000313 0
0.012962 0.000297 0
0.013146 0.000281 0
0.013278 0.000266 0
0.013350 0.000250 0
0.013352 0.000234 0
0.013270 0.000219 0
0.013092 0.000203 0
0.012805 0.000187 0
0.012392 0.000172 0
0.011841 0.000156 0
0.011138 0.000139 0
0.010271 0.000122 0
0.009235 0.000105 0
0.008029 0.000087 0
0.006659 0.000068 0
0.005142 0.000049 0
0.003502 0.000030 0
0.001775 0.000010 0
0.000000 0.000000 0
0.000000 0.000000 0
0.000502 0.000054 0
0.001004 0.000106 0
0.001505 0.000158 0
0.002007 0.000208 0
0.002508 0.000255 0
0.003010 0.000299 0
0.003511 0.000340 0
0.004012 0.000377 0
0.004514 0.000411 0
0.005015 0.000440 0
0.005517 0.000466 0
0.006018 0.000487 0
0.006519 0.000504 0
0.007020 0.000517 0
0.007519 0.000527 0
0.008017 0.000533 0
0.008514 0.000536 0
0.009008 0.000535 0
0.009499 0.000532 0
0.009986 0.000526 0
0.010469 0.000518 0
0.010945 0.000508 0
0.011414 0.000497 0
0.011875 0.000484 0
0.012324 0.000469 0
0.012761 0.000454 0
0.013181 0.000437 0
0.013583 0.000421 0
0.013962 0.000403 0
0.014314 0.000386 0
0.014633 0.000368 0
0.014913 0.000350 0
0.015146 0.000332 0
0.015323 0.000314 0
0.015434 0.000296 0
0.015466 0.000278 0
0.015406 0.000260 0
0.015236 0.000242 0
0.014941 0.000224 0
0.014501 0.000205 0
0.013898 0.000187 0
0.013113 0.000168 0
0.012131 0.000148 0
0.010941 0.000127 0
0.009540 0.000106 0
0.007934 0.000083 0
0.006140 0.000060 0
0.004190 0.000036 0
0.002125 0.000012 0
0.000000 0.000000 0
0.000000 0.000000 0
0.000569 0.000063 0
0.001138 0.000125 0
0.001707 0.000185 0
0.002275 0.000243 0
0.002844 0.000298 0
0.003413 0.000350 0
0.003981 0.000398 0
0.004550 0.000441 0
0.005119 0.000480 0
0.005689 0.000514 0
0.006258 0.000543 0
0.006828 0.000568 0
0.007398 0.000587 0
0.007967 0.000603 0
0.008535 0.000613 0
0.009103 0.000620 0
0.009669 0.000623 0
0.010233 0.000622 0
0.010793 0.000619 0
0.011351 0.000612 0
0.011903 0.000603 0
0.012449 0.000591 0
0.012988 0.000578 0
0.013518 0.000563 0
0.014037 0.000546 0
0.014543 0.000529 0
0.015032 0.000510 0
0.015502 0.000491 0
0.015948 0.000471 0
0.016365 0.000451 0
0.016748 0.000430 0
0.017090 0.000410 0
0.017382 0.000389 0
0.017613 0.000369 0
0.017773 0.000348 0
0.017846 0.000328 0
0.017816 0.000307 0
0.017665 0.000287 0
0.017370 0.000266 0
0.016909 0.000245 0
0.016257 0.000223 0
0.015390 0.000201 0
0.014286 0.000178 0
0.012930 0.000153 0
0.011311 0.000128 0
0.009435 0.000101 0
0.007321 0.000073 0
0.005006 0.000044 0
0.002543 0.000015 0
0.000000 0.000000 0
0.000000 0.000000 0
0.000643 0.000073 0
0.001286 0.000146 0
0.001928 0.000216 0
0.002571 0.000284 0
0.003214 0.000349 0
0.003856 0.000409 0
0.004499 0.000464 0
0.005143 0.000514 0
0.005787 0.000559 0
0.006431 0.000599 0
0.007076 0.000632 0
0.007721 0.000660 0
0.008366 0.000683 0
0.009011 0.000700 0
0.009656 0.000712 0
0.010300 0.000719 0
0.010943 0.000723 0
0.011584 0.000722 0
0.012222 0.000717 0
0.012857 0.000709 0
0.013487 0.000698 0
0.014110 0.000685 0
0.014727 0.000670 0
0.015335 0.000652 0
0.015931 0.000633 0
0.016514 0.000613 0
0.017080 0.000592 0