# vtk DataFile Version 2.0
generated by CFD-lab course output (written by Tobias Neckel) 
ASCII

DATASET STRUCTURED_GRID
DIMENSIONS  51 51 1 
POINTS 2601 float

0.000000 0.000000 0
0.020000 0.000000 0
0.040000 0.000000 0
0.060000 0.000000 0
0.080000 0.000000 0
0.100000 0.000000 0
0.120000 0.000000 0
0.140000 0.000000 0
0.160000 0.000000 0
0.180000 0.000000 0
0.200000 0.000000 0
0.220000 0.000000 0
0.240000 0.000000 0
0.260000 0.000000 0
0.280000 0.000000 0
0.300000 0.000000 0
0.320000 0.000000 0
0.340000 0.000000 0
0.360000 0.000000 0
0.380000 0.000000 0
0.400000 0.000000 0
0.420000 0.000000 0
0.440000 0.000000 0
0.460000 0.000000 0
0.480000 0.000000 0
0.500000 0.000000 0
0.520000 0.000000 0
0.540000 0.000000 0
0.560000 0.000000 0
0.580000 0.000000 0
0.600000 0.000000 0
0.620000 0.000000 0
0.640000 0.000000 0
0.660000 0.000000 0
0.680000 0.000000 0
0.700000 0.000000 0
0.720000 0.000000 0
0.740000 0.000000 0
0.760000 0.000000 0
0.780000 0.000000 0
0.800000 0.000000 0
0.820000 0.000000 0
0.840000 0.000000 0
0.860000 0.000000 0
0.880000 0.000000 0
0.900000 0.000000 0
0.920000 0.000000 0
0.940000 0.000000 0
0.960000 0.000000 0
0.980000 0.000000 0
1.000000 0.000000 0
0.000000 0.020000 0
0.020000 0.020000 0
0.040000 0.020000 0
0.060000 0.020000 0
0.080000 0.020000 0
0.100000 0.020000 0
0.120000 0.020000 0
0.140000 0.020000 0
0.160000 0.020000 0
0.180000 0.020000 0
0.200000 0.020000 0
0.220000 0.020000 0
0.240000 0.020000 0
0.260000 0.020000 0
0.280000 0.020000 0
0.300000 0.020000 0
0.320000 0.020000 0
0.340000 0.020000 0
0.360000 0.020000 0
0.380000 0.020000 0
0.400000 0.020000 0
0.420000 0.020000 0
0.440000 0.020000 0
0.460000 0.020000 0
0.480000 0.020000 0
0.500000 0.020000 0
0.520000 0.020000 0
0.540000 0.020000 0
0.560000 0.020000 0
0.580000 0.020000 0
0.600000 0.020000 0
0.620000 0.020000 0
0.640000 0.020000 0
0.660000 0.020000 0
0.680000 0.020000 0
0.700000 0.020000 0
0.720000 0.020000 0
0.740000 0.020000 0
0.760000 0.020000 0
0.780000 0.020000 0
0.800000 0.020000 0
0.820000 0.020000 0
0.840000 0.020000 0
0.860000 0.020000 0
0.880000 0.020000 0
0.900000 0.020000 0
0.920000 0.020000 0
0.940000 0.020000 0
0.960000 0.020000 0
0.980000 0.020000 0
1.000000 0.020000 0
0.000000 0.040000 0
0.020000 0.040000 0
0.040000 0.040000 0
0.060000 0.040000 0
0.080000 0.040000 0
0.100000 0.040000 0
0.120000 0.040000 0
0.140000 0.040000 0
0.160000 0.040000 0
0.180000 0.040000 0
0.200000 0.040000 0
0.220000 0.040000 0
0.240000 0.040000 0
0.260000 0.040000 0
0.280000 0.040000 0
0.300000 0.040000 0
0.320000 0.040000 0
0.340000 0.040000 0
0.360000 0.040000 0
0.380000 0.040000 0
0.400000 0.040000 0
0.420000 0.040000 0
0.440000 0.040000 0
0.460000 0.040000 0
0.480000 0.040000 0
0.500000 0.040000 0
0.520000 0.040000 0
0.540000 0.040000 0
0.560000 0.040000 0
0.580000 0.040000 0
0.600000 0.040000 0
0.620000 0.040000 0
0.640000 0.040000 0
0.660000 0.040000 0
0.680000 0.040000 0
0.700000 0.040000 0
0.720000 0.040000 0
0.740000 0.040000 0
0.760000 0.040000 0
0.780000 0.040000 0
0.800000 0.040000 0
0.820000 0.040000 0
0.840000 0.040000 0
0.860000 0.040000 0
0.880000 0.040000 0
0.900000 0.040000 0
0.920000 0.040000 0
0.940000 0.040000 0
0.960000 0.040000 0
0.980000 0.040000 0
1.000000 0.040000 0
0.000000 0.060000 0
0.020000 0.060000 0
0.040000 0.060000 0
0.060000 0.060000 0
0.080000 0.060000 0
0.100000 0.060000 0
0.120000 0.060000 0
0.140000 0.060000 0
0.160000 0.060000 0
0.180000 0.060000 0
0.200000 0.060000 0
0.220000 0.060000 0
0.240000 0.060000 0
0.260000 0.060000 0
0.280000 0.060000 0
0.300000 0.060000 0
0.320000 0.060000 0
0.340000 0.060000 0
0.360000 0.060000 0
0.380000 0.060000 0
0.400000 0.060000 0
0.420000 0.060000 0
0.440000 0.060000 0
0.460000 0.060000 0
0.480000 0.060000 0
0.500000 0.060000 0
0.520000 0.060000 0
0.540000 0.060000 0
0.560000 0.060000 0
0.580000 0.060000 0
0.600000 0.060000 0
0.620000 0.060000 0
0.640000 0.060000 0
0.660000 0.060000 0
0.680000 0.060000 0
0.700000 0.060000 0
0.720000 0.060000 0
0.740000 0.060000 0
0.760000 0.060000 0
0.780000 0.060000 0
0.800000 0.060000 0
0.820000 0.060000 0
0.840000 0.060000 0
0.860000 0.060000 0
0.880000 0.060000 0
0.900000 0.060000 0
0.920000 0.060000 0
0.940000 0.060000 0
0.960000 0.060000 0
0.980000 0.060000 0
1.000000 0.060000 0
0.000000 0.080000 0
0.020000 0.080000 0
0.040000 0.080000 0
0.060000 0.080000 0
0.080000 0.080000 0
0.100000 0.080000 0
0.120000 0.080000 0
0.140000 0.080000 0
0.160000 0.080000 0
0.180000 0.080000 0
0.200000 0.080000 0
0.220000 0.080000 0
0.240000 0.080000 0
0.260000 0.080000 0
0.280000 0.080000 0
0.300000 0.080000 0
0.320000 0.080000 0
0.340000 0.080000 0
0.360000 0.080000 0
0.380000 0.080000 0
0.400000 0.080000 0
0.420000 0.080000 0
0.440000 0.080000 0
0.460000 0.080000 0
0.480000 0.080000 0
0.500000 0.080000 0
0.520000 0.080000 0
0.540000 0.080000 0
0.560000 0.080000 0
0.580000 0.080000 0
0.600000 0.080000 0
0.620000 0.080000 0
0.640000 0.080000 0
0.660000 0.080000 0
0.680000 0.080000 0
0.700000 0.080000 0
0.720000 0.080000 0
0.740000 0.080000 0
0.760000 0.080000 0
0.780000 0.080000 0
0.800000 0.080000 0
0.820000 0.080000 0
0.840000 0.080000 0
0.860000 0.080000 0
0.880000 0.080000 0
0.900000 0.080000 0
0.920000 0.080000 0
0.940000 0.080000 0
0.960000 0.080000 0
0.980000 0.080000 0
1.000000 0.080000 0
0.000000 0.100000 0
0.020000 0.100000 0
0.040000 0.100000 0
0.060000 0.100000 0
0.080000 0.100000 0
0.100000 0.100000 0
0.120000 0.100000 0
0.140000 0.100000 0
0.160000 0.100000 0
0.180000 0.100000 0
0.200000 0.100000 0
0.220000 0.100000 0
0.240000 0.100000 0
0.260000 0.100000 0
0.280000 0.100000 0
0.300000 0.100000 0
0.320000 0.100000 0
0.340000 0.100000 0
0.360000 0.100000 0
0.380000 0.100000 0
0.400000 0.100000 0
0.420000 0.100000 0
0.440000 0.100000 0
0.460000 0.100000 0
0.480000 0.100000 0
0.500000 0.100000 0
0.520000 0.100000 0
0.540000 0.100000 0
0.560000 0.100000 0
0.580000 0.100000 0
0.600000 0.100000 0
0.620000 0.100000 0
0.640000 0.100000 0
0.660000 0.100000 0
0.680000 0.100000 0
0.700000 0.100000 0
0.720000 0.100000 0
0.740000 0.100000 0
0.760000 0.100000 0
0.780000 0.100000 0
0.800000 0.100000 0
0.820000 0.100000 0
0.840000 0.100000 0
0.860000 0.100000 0
0.880000 0.100000 0
0.900000 0.100000 0
0.920000 0.100000 0
0.940000 0.100000 0
0.960000 0.100000 0
0.980000 0.100000 0
1.000000 0.100000 0
0.000000 0.120000 0
0.020000 0.120000 0
0.040000 0.120000 0
0.060000 0.120000 0
0.080000 0.120000 0
0.100000 0.120000 0
0.120000 0.120000 0
0.140000 0.120000 0
0.160000 0.120000 0
0.180000 0.120000 0
0.200000 0.120000 0
0.220000 0.120000 0
0.240000 0.120000 0
0.260000 0.120000 0
0.280000 0.120000 0
0.300000 0.120000 0
0.320000 0.120000 0
0.340000 0.120000 0
0.360000 0.120000 0
0.380000 0.120000 0
0.400000 0.120000 0
0.420000 0.120000 0
0.440000 0.120000 0
0.460000 0.120000 0
0.480000 0.120000 0
0.500000 0.120000 0
0.520000 0.120000 0
0.540000 0.120000 0
0.560000 0.120000 0
0.580000 0.120000 0
0.600000 0.120000 0
0.620000 0.120000 0
0.640000 0.120000 0
0.660000 0.120000 0
0.680000 0.120000 0
0.700000 0.120000 0
0.720000 0.120000 0
0.740000 0.120000 0
0.760000 0.120000 0
0.780000 0.120000 0
0.800000 0.120000 0
0.820000 0.120000 0
0.840000 0.120000 0
0.860000 0.120000 0
0.880000 0.120000 0
0.900000 0.120000 0
0.920000 0.120000 0
0.940000 0.120000 0
0.960000 0.120000 0
0.980000 0.120000 0
1.000000 0.120000 0
0.000000 0.140000 0
0.020000 0.140000 0
0.040000 0.140000 0
0.060000 0.140000 0
0.080000 0.140000 0
0.100000 0.140000 0
0.120000 0.140000 0
0.140000 0.140000 0
0.160000 0.140000 0
0.180000 0.140000 0
0.200000 0.140000 0
0.220000 0.140000 0
0.240000 0.140000 0
0.260000 0.140000 0
0.280000 0.140000 0
0.300000 0.140000 0
0.320000 0.140000 0
0.340000 0.140000 0
0.360000 0.140000 0
0.380000 0.140000 0
0.400000 0.140000 0
0.420000 0.140000 0
0.440000 0.140000 0
0.460000 0.140000 0
0.480000 0.140000 0
0.500000 0.140000 0
0.520000 0.140000 0
0.540000 0.140000 0
0.560000 0.140000 0
0.580000 0.140000 0
0.600000 0.140000 0
0.620000 0.140000 0
0.640000 0.140000 0
0.660000 0.140000 0
0.680000 0.140000 0
0.700000 0.140000 0
0.720000 0.140000 0
0.740000 0.140000 0
0.760000 0.140000 0
0.780000 0.140000 0
0.800000 0.140000 0
0.820000 0.140000 0
0.840000 0.140000 0
0.860000 0.140000 0
0.880000 0.140000 0
0.900000 0.140000 0
0.920000 0.140000 0
0.940000 0.140000 0
0.960000 0.140000 0
0.980000 0.140000 0
1.000000 0.140000 0
0.000000 0.160000 0
0.020000 0.160000 0
0.040000 0.160000 0
0.060000 0.160000 0
0.080000 0.160000 0
0.100000 0.160000 0
0.120000 0.160000 0
0.140000 0.160000 0
0.160000 0.160000 0
0.180000 0.160000 0
0.200000 0.160000 0
0.220000 0.160000 0
0.240000 0.160000 0
0.260000 0.160000 0
0.280000 0.160000 0
0.300000 0.160000 0
0.320000 0.160000 0
0.340000 0.160000 0
0.360000 0.160000 0
0.380000 0.160000 0
0.400000 0.160000 0
0.420000 0.160000 0
0.440000 0.160000 0
0.460000 0.160000 0
0.480000 0.160000 0
0.500000 0.160000 0
0.520000 0.160000 0
0.540000 0.160000 0
0.560000 0.160000 0
0.580000 0.160000 0
0.600000 0.160000 0
0.620000 0.160000 0
0.640000 0.160000 0
0.660000 0.160000 0
0.680000 0.160000 0
0.700000 0.160000 0
0.720000 0.160000 0
0.740000 0.160000 0
0.760000 0.160000 0
0.780000 0.160000 0
0.800000 0.160000 0
0.820000 0.160000 0
0.840000 0.160000 0
0.860000 0.160000 0
0.880000 0.160000 0
0.900000 0.160000 0
0.920000 0.160000 0
0.940000 0.160000 0
0.960000 0.160000 0
0.980000 0.160000 0
1.000000 0.160000 0
0.000000 0.180000 0
0.020000 0.180000 0
0.040000 0.180000 0
0.060000 0.180000 0
0.080000 0.180000 0
0.100000 0.180000 0
0.120000 0.180000 0
0.140000 0.180000 0
0.160000 0.180000 0
0.180000 0.180000 0
0.200000 0.180000 0
0.220000 0.180000 0
0.240000 0.180000 0
0.260000 0.180000 0
0.280000 0.180000 0
0.300000 0.180000 0
0.320000 0.180000 0
0.340000 0.180000 0
0.360000 0.180000 0
0.380000 0.180000 0
0.400000 0.180000 0
0.420000 0.180000 0
0.440000 0.180000 0
0.460000 0.180000 0
0.480000 0.180000 0
0.500000 0.180000 0
0.520000 0.180000 0
0.540000 0.180000 0
0.560000 0.180000 0
0.580000 0.180000 0
0.600000 0.180000 0
0.620000 0.180000 0
[...]
POINT_DATA 2601 

VECTORS velocity float
0.000000 0.000000 0
0.000000 0.000000 0
0.000000 0.000000 0
0.000000 0.000000 0
0.000000 0.000000 0
0.000000 0.000000 0
0.000000 0.000000 0
0.000000 0.000000 0
0.000000 0.000000 0
0.000000 0.000000 0
0.000000 0.000000 0
0.000000 0.000000 0
0.000000 0.000000 0
0.000000 0.000000 0
0.000000 0.000000 0
0.000000 0.000000 0
0.000000 0.000000 0
0.000000 0.000000 0
0.000000 0.000000 0
0.000000 0.000000 0
0.000000 0.000000 0
0.000000 0.000000 0
0.000000 0.000000 0
0.000000 0.000000 0
0.000000 0.000000 0
0.000000 0.000000 0
0.000000 0.000000 0
0.000000 0.000000 0
0.000000 0.000000 0
0.000000 0.000000 0
0.000000 0.000000 0
0.000000 0.000000 0
0.000000 0.000000 0
0.000000 0.000000 0
0.000000 0.000000 0
0.000000 0.000000 0
0.000000 0.000000 0
0.000000 0.000000 0
0.000000 0.000000 0
0.000000 0.000000 0
0.000000 0.000000 0
0.000000 0.000000 0
0.000000 0.000000 0
0.000000 0.000000 0
0.000000 0.000000 0
0.000000 0.000000 0
0.000000 0.000000 0
0.000000 0.000000 0
0.000000 0.000000 0
0.000000 0.000000 0
0.000000 0.000000 0
0.000000 0.000000 0
0.000047 0.000004 0
0.000095 0.000008 0
0.000142 0.000012 0
0.000189 0.000015 0
0.000236 0.000019 0
0.000283 0.000023 0
0.000330 0.000026 0
0.000376 0.000029 0
0.000423 0.000033 0
0.000469 0.000036 0
0.000515 0.000039 0
0.000561 0.000041 0
0.000606 0.000044 0
0.000651 0.000047 0
0.000695 0.000049 0
0.000739 0.000051 0
0.000783 0.000053 0
0.000825 0.000055 0
0.000867 0.000056 0
0.000908 0.000058 0
0.000948 0.000059 0
0.000986 0.000060 0
0.001023 0.000061 0
0.001059 0.000062 0
0.001092 0.000062 0
0.001123 0.000062 0
0.001151 0.000063 0
0.001177 0.000062 0
0.001198 0.000062 0
0.001216 0.000062 0
0.001230 0.000061 0
0.001238 0.000060 0
0.001241 0.000059 0
0.001237 0.000058 0
0.001226 0.000056 0
0.001208 0.000054 0
0.001181 0.000052 0
0.001146 0.000049 0
0.001101 0.000046 0
0.001046 0.000043 0
0.000980 0.000040 0
0.000905 0.000036 0
0.000819 0.000032 0
0.000724 0.000028 0
0.000619 0.000023 0
0.000506 0.000018 0
0.000386 0.000013 0
0.000261 0.000008 0
0.000131 0.000003 0
0.000000 0.000000 0
0.000000 0.000000 0
0.000095 0.000008 0
0.000189 0.000015 0
0.000284 0.000023 0
0.000378 0.000031 0
0.000472 0.000038 0
0.000566 0.000045 0
0.000660 0.000052 0
0.000753 0.000059 0
0.000846 0.000065 0
0.000938 0.000072 0
0.001030 0.000078 0
0.001122 0.000083 0
0.001212 0.000088 0
0.001302 0.000093 0
0.001391 0.000098 0
0.001479 0.000102 0
0.001566 0.000106 0
0.001652 0.000110 0
0.001735 0.000113 0
0.001817 0.000116 0
0.001897 0.000118 0
0.001974 0.000120 0
0.002049 0.000122 0
0.002120 0.000123 0
0.002187 0.000124 0
0.002249 0.000125 0
0.002306 0.000125 0
0.002357 0.000125 0
0.002401 0.000125 0
0.002438 0.000124 0
0.002465 0.000122 0
0.002482 0.000121 0
0.002488 0.000118 0
0.002481 0.000116 0
0.002461 0.000112 0
0.002425 0.000108 0
0.002372 0.000104 0
0.002301 0.000099 0
0.002211 0.000093 0
0.002101 0.000087 0
0.001971 0.000080 0
0.001820 0.000073 0
0.001648 0.000064 0
0.001456 0.000056 0
0.001246 0.000046 0
0.001019 0.000037 0
0.000777 0.000026 0
0.000525 0.000016 0
0.000264 0.000005 0
0.000000 0.000000 0
0.000000 0.000000 0
0.000142 0.000012 0
0.000284 0.000023 0
0.000426 0.000035 0
0.000567 0.000046 0
0.000709 0.000057 0
0.000850 0.000068 0
0.000990 0.000079 0
0.001130 0.000089 0
0.001270 0.000098 0
0.001409 0.000108 0
0.001547 0.000117 0
0.001684 0.000125 0
0.001820 0.000133 0
0.001955 0.000141 0
0.002089 0.000147 0
0.002222 0.000154 0
0.002352 0.000160 0
0.002481 0.000165 0
0.002607 0.000170 0
0.002730 0.000174 0
0.002850 0.000178 0
0.002967 0.000181 0
0.003079 0.000184 0
0.003186 0.000186 0
0.003287 0.000187 0
0.003381 0.000188 0
0.003468 0.000188 0
0.003546 0.000188 0
0.003613 0.000188 0
0.003669 0.000186 0
0.003711 0.000184 0
0.003739 0.000181 0
0.003749 0.000178 0
0.003740 0.000174 0
0.003711 0.000169 0
0.003658 0.000163 0
0.003580 0.000157 0
0.003475 0.000149 0
0.003341 0.000141 0
0.003177 0.000131 0
0.002982 0.000121 0
0.002754 0.000110 0
0.002496 0.000097 0
0.002206 0.000084 0
0.001888 0.000070 0
0.001545 0.000055 0
0.001179 0.000040 0
0.000796 0.000024 0
0.000401 0.000008 0
0.000000 0.000000 0
0.000000 0.000000 0
0.000190 0.000016 0
0.000379 0.000031 0
0.000568 0.000047 0
0.000757 0.000062 0
0.000946 0.000077 0
0.001134 0.000091 0
0.001322 0.000105 0
0.001509 0.000119 0
0.001695 0.000132 0
0.001881 0.000145 0
0.002065 0.000157 0
0.002249 0.000168 0
0.002431 0.000178 0
0.002611 0.000188 0
0.002790 0.000198 0
0.002967 0.000206 0
0.003142 0.000214 0
0.003314 0.000221 0
0.003483 0.000227 0
0.003648 0.000233 0
0.003809 0.000238 0
0.003966 0.000242 0
0.004116 0.000246 0
0.004260 0.000248 0
0.004396 0.000251 0
0.004524 0.000252 0
0.004641 0.000252 0
0.004747 0.000252 0
0.004839 0.000251 0
0.004915 0.000249 0
0.004974 0.000247 0
0.005013 0.000243 0
0.005030 0.000239 0
0.005021 0.000233 0
0.004984 0.000227 0
0.004917 0.000219 0
0.004815 0.000210 0
0.004678 0.000200 0
0.004501 0.000189 0
0.004283 0.000177 0
0.004022 0.000163 0
0.003718 0.000147 0
0.003371 0.000131 0
0.002983 0.000113 0
0.002554 0.000094 0
0.002091 0.000075 0
0.001597 0.000054 0
0.001078 0.000033 0
0.000544 0.000011 0
0.000000 0.000000 0
0.000000 0.000000 0
0.000237 0.000020 0
0.000475 0.000039 0
0.000712 0.000059 0
0.000949 0.000078 0
0.001185 0.000097 0
0.001421 0.000115 0
0.001656 0.000133 0
0.001890 0.000150 0
0.002123 0.000166 0
0.002356 0.000182 0
0.002587 0.000197 0
0.002817 0.000211 0
0.003045 0.000225 0
0.003272 0.000237 0
0.003496 0.000249 0
0.003718 0.000259 0
0.003938 0.000269 0
0.004154 0.000278 0
0.004366 0.000286 0
0.004574 0.000293 0
0.004777 0.000299 0
0.004974 0.000304 0
0.005164 0.000309 0
0.005346 0.000312 0
0.005518 0.000315 0
0.005680 0.000316 0
0.005830 0.000317 0
0.005964 0.000317 0
0.006083 0.000316 0
0.006182 0.000314 0
0.006260 0.000310 0
0.006312 0.000306 0
0.006337 0.000300 0
0.006331 0.000294 0
0.006289 0.000285 0
0.006209 0.000276 0
0.006086 0.000265 0
0.005917 0.000253 0
0.005699 0.000239 0
0.005428 0.000223 0
0.005102 0.000206 0
0.004721 0.000186 0
0.004285 0.000166 0
0.003794 0.000143 0
0.003252 0.000120 0
0.002663 0.000095 0
0.002035 0.000068 0
0.001375 0.000041 0
0.000693 0.000014 0
0.000000 0.000000 0
0.000000 0.000000 0
0.000286 0.000024 0
0.000571 0.000048 0
0.000856 0.000071 0
0.001141 0.000094 0
0.001425 0.000117 0
0.001709 0.000139 0
0.001992 0.000161 0
0.002274 0.000182 0
0.002555 0.000202 0
0.002834 0.000221 0
0.003113 0.000239 0
0.003390 0.000256 0
0.003665 0.000272 0
0.003938 0.000287 0
0.004208 0.000301 0
0.004476 0.000314 0
0.004741 0.000326 0
0.005002 0.000336 0
0.005258 0.000346 0
0.005510 0.000354 0
0.005755 0.000362 0
0.005994 0.000368 0
0.006225 0.000373 0
0.006446 0.000377 0
0.006657 0.000380 0
0.006854 0.000382 0
0.007038 0.000383 0
0.007204 0.000383 0
0.007350 0.000381 0
0.007475 0.000379 0
0.007573 0.000375 0
0.007642 0.000370 0
0.007678 0.000363 0
0.007677 0.000355 0
0.007633 0.000346 0
0.007543 0.000334 0
0.007401 0.000321 0
0.007203 0.000306 0
0.006945 0.000290 0
0.006622 0.000271 0
0.006232 0.000250 0
0.005773 0.000227 0
0.005245 0.000202 0
0.004649 0.000175 0
0.003988 0.000146 0
0.003269 0.000115 0
0.002500 0.000083 0
0.001690 0.000051 0
0.000852 0.000017 0
0.000000 0.000000 0
0.000000 0.000000 0
0.000334 0.000028 0
0.000668 0.000056 0
0.001002 0.000084 0
0.001336 0.000112 0
0.001668 0.000138 0
0.002000 0.000165 0
0.002331 0.000190 0
0.002661 0.000214 0
0.002990 0.000238 0
0.003318 0.000260 0
0.003644 0.000282 0
0.003969 0.000302 0
0.004291 0.000321 0
0.004611 0.000338 0
0.004929 0.000355 0
0.005243 0.000370 0
0.005554 0.000383 0
0.005861 0.000396 0
0.006163 0.000407 0
0.006459 0.000417 0
0.006748 0.000425 0
0.007030 0.000433 0
0.007303 0.000439 0
0.007565 0.000444 0
0.007815 0.000447 0
0.008051 0.000450 0
0.008270 0.000451 0
0.008469 0.000450 0
0.008647 0.000449 0
0.008799 0.000446 0
0.008921 0.000441 0
0.009010 0.000435 0
0.009060 0.000428 0
0.009067 0.000418 0
0.009024 0.000407 0
0.008927 0.000394 0
0.008769 0.000379 0
0.008545 0.000362 0
0.008249 0.000342 0
0.007876 0.000320 0
0.007422 0.000296 0
0.006884 0.000269 0
0.006262 0.000239 0
0.005557 0.000207 0
0.004773 0.000173 0
0.003916 0.000137 0
0.002997 0.000099 0
0.002027 0.000060 0
0.001023 0.000020 0
0.000000 0.000000 0
0.000000 0.000000 0
0.000384 0.000033 0
0.000767 0.000065 0
0.001150 0.000098 0
0.001532 0.000129 0
0.001914 0.000161 0
0.002295 0.000191 0
0.002675 0.000220 0
0.003054 0.000248 0
0.003432 0.000276 0
0.003808 0.000301 0
0.004183 0.000326 0
0.004556 0.000349 0
0.004926 0.000371 0
0.005294 0.000391 0
0.005660 0.000410 0
0.006022 0.000427 0
0.006380 0.000443 0
0.006733 0.000457 0
0.007082 0.000470 0
0.007424 0.000481 0
0.007758 0.000491 0
0.008085 0.000499 0
0.008401 0.000506 0
0.008706 0.000512 0
0.008998 0.000516 0
0.009273 0.000519 0
0.009530 0.000520 0
0.009766 0.000519 0
0.009977 0.000518 0
0.010160 0.000514 0
0.010309 0.000509 0
0.010421 0.000502 0
0.010489 0.000494 0
0.010508 0.000483 0
0.010470 0.000471 0
0.010370 0.000456 0
0.010200 0.000439 0
0.009953 0.000419 0
0.009622 0.000397 0
0.009200 0.000372 0
0.008683 0.000344 0
0.008066 0.000313 0
0.007347 0.000279 0
0.006529 0.000242 0
0.005614 0.000202 0
0.004612 0.000160 0
0.003532 0.000116 0
0.002391 0.000070 0
0.001207 0.000024 0
0.000000 0.000000 0
0.000000 0.000000 0
0.000434 0.000038 0
0.000867 0.000075 0
0.001300 0.000112 0
0.001732 0.000148 0
0.002164 0.000184 0
0.002595 0.000218 0
0.003025 0.000252 0
0.003453 0.000284 0
0.003881 0.000315 0
0.004306 0.000345 0
0.004731 0.000372 0
0.005153 0.000399 0
0.005572 0.000423 0
0.005990 0.000446 0
0.006404 0.000468 0
0.006814 0.000487 0
0.007221 0.000505 0
0.007622 0.000521 0
0.008019 0.000535 0
0.008408 0.000548 0
0.008790 0.000559 0
0.009162 0.000568 0
0.009524 0.000576 0
0.009874 0.000582 0
0.010209 0.000587 0
0.010527 0.000589 0
0.010825 0.000591 0
0.011100 0.000590 0
0.011348 0.000588 0
0.011564 0.000585 0
0.011745 0.000579 0
0.011883 0.000572 0
0.011973 0.000562 0
0.012008 0.000550 0
0.011980 0.000537 0
0.011881 0.000520 0
0.011703 0.000501 0
0.011437 0.000479 0
0.011073 0.000454 0
0.010605 0.000426 0
0.010025 0.000394 0
0.009328 0.000359 0
0.008511 0.000320 0
0.007575 0.000278 0
0.006523 0.000233 0
0.005365 0.000185 0
0.004114 0.000134 0
0.002787 0.000081 0
0.001408 0.000027 0
0.000000 0.000000 0
0.000000 0.000000 0
0.000485 0.000043 0
0.000969 0.000085 0
0.001453 0.000127 0
0.001936 0.000168 0
0.002419 0.000208 0
0.002900 0.000247 0
0.003381 0.000285 0
0.003860 0.000322 0
0.004338 0.000357 0
0.004815 0.000390 0
0.005289 0.000421 0
0.005762 0.000451 0
0.006232 0.000478 0
0.006699 0.000504 0
0.007163 0.000528 0
0.007624 0.000549 0
0.008080 0.000569 0
0.008532 0.000587 0
0.008977 0.000603 0
0.009416 0.000617 0
0.009846 0.000629 0
0.010267 0.000639 0
0.010677 0.000648 0
0.011073 0.000655 0
0.011454 0.000659 0
0.011817 0.000663 0
0.012159 0.000664 0
0.012476 0.000664 0
0.012764 0.000661 0
0.013018 0.000657 0
0.013233 0.000651 0
0.013402 0.000643 0
0.013519 0.000633 0
0.013575 0.000620 0
0.013561 0.000604 0
0.013469 0.000586 0
0.013287 0.000565 0
0.013006 0.000541 0
0.012615 0.000513 0
0.012103 0.000482 0
0.011463 0.000447 0
0.010685 0.000407 0
0.009767 0.000364 0
0.008708 0.000316 0
0.007511 0.000265 0
0.006186 0.000210 0
0.004749 0.000153 0
0.003221 0.000093 0
0.001627 0.000031 0
0.000000 0.000000 0
0.000000 0.000000 0
0.000537 0.000048 0
0.001073 0.000096 0
0.001609 0.000143 0
0.002145 0.000189 0
0.002679 0.000234 0
0.003213 0.000278 0
0.003745 0.000321 0
0.004277 0.000361 0
0.004806 0.000400 0
0.005335 0.000437 0
0.005861 0.000472 0
0.006385 0.000505 0
0.006907 0.000536 0
0.007426 0.000565 0
0.007942 0.000591 0
0.008454 0.000615 0
0.008962 0.000637 0
0.009464 0.000656 0
0.009961 0.000674 0
0.010451 0.000689 0
0.010932 0.000702 0
0.011403 0.000713 0
0.011863 0.000723 0
0.012309 0.000730 0
0.012739 0.000735 0
0.013149 0.000738 0
0.013538 0.000740 0
0.013901 0.000739 0
0.014232 0.000737 0
0.014528 0.000732 0
0.014782 0.000726 0
0.014987 0.000717 0
0.015135 0.000705 0
0.015217 0.000692 0
0.015223 0.000675 0
0.015143 0.000655 0
0.014964 0.000632 0
0.014673 0.000606 0
0.014258 0.000575 0
0.013707 0.000541 0
0.013007 0.000502 0
0.012150 0.000458 0
0.011128 0.000410 0
0.009940 0.000357 0
0.008589 0.000300 0
0.007086 0.000238 0
0.005447 0.000173 0
0.003698 0.000105 0
0.001870 0.000035 0
0.000000 0.000000 0
0.000000 0.000000 0
0.000590 0.000054 0
0.001181 0.000107 0
0.001770 0.000160 0
0.002359 0.000211 0
0.002947 0.000262 0
0.003534 0.000311 0
0.004120 0.000358 0
0.004704 0.000404 0
0.005287 0.000447 0
0.005869 0.000488 0
0.006448 0.000527 0
0.007026 0.000563 0
0.007601 0.000597 0
0.008174 0.000629 0
0.008743 0.000657 0
0.009308 0.000684 0
0.009869 0.000707 0
0.010425 0.000729 0
0.010975 0.000748 0
0.011517 0.000764 0
0.012051 0.000779 0
0.012576 0.000791 0
0.013088 0.000800 0
0.013586 0.000808 0
0.014067 0.000814 0
0.014529 0.000817 0
0.014968 0.000818 0
0.015380 0.000818 0
0.015760 0.000815 0
0.016102 0.000810 0
0.016399 0.000803 0
0.016645 0.000793 0
0.016830 0.000781 0
0.016944 0.000766 0
0.016976 0.000748 0
0.016914 0.000727 0
0.016743 0.000702 0
0.016449 0.000673 0
0.016016 0.000640 0
0.015429 0.000603 0
0.014674 0.000560 0
0.013737 0.000512 0
0.012610 0.000459 0
0.011287 0.000401 0
0.009773 0.000337 0
0.008077 0.000268 0
0.006218 0.000195 0
0.004226 0.000118 0
0.002138 0.000040 0
0.000000 0.000000 0
0.000000 0.000000 0
0.000646 0.000060 0
0.001291 0.000119 0
0.001936 0.000178 0
0.002579 0.000236 0
0.003222 0.000292 0
0.003864 0.000346 0
0.004505 0.000399 0
0.005145 0.000449 0
0.005783 0.000497 0
0.006420 0.000543 0
0.007054 0.000585 0
0.007687 0.000625 0
0.008317 0.000662 0
0.008945 0.000696 0
0.009569 0.000728 0
0.010190 0.000756 0
0.010807 0.000782 0
0.011418 0.000805 0
0.012023 0.000826 0
0.012621 0.000843 0
0.013211 0.000859 0
0.013790 0.000871 0
0.014358 0.000882 0
0.014911 0.000890 0
0.015447 0.000895 0
0.015964 0.000899 0
0.016457 0.000900 0
0.016921 0.000899 0
0.017353 0.000896 0
0.017746 0.000891 0
0.018092 0.000883 0
0.018384 0.000872 0
0.018611 0.000859 0
0.018764 0.000843 0
0.018829 0.000824 0
0.018791 0.000801 0
0.018636 0.000775 0
0.018345 0.000744 0
0.017901 0.000709 0
0.017284 0.000668 0
0.016477 0.000622 0
0.015462 0.000570 0
0.014227 0.000511 0
0.012766 0.000447 0
0.011077 0.000376 0
0.009173 0.000300 0
0.007074 0.000218 0
0.004814 0.000133 0
0.002438 0.000045 0
0.000000 0.000000 0
0.000000 0.000000 0
0.000703 0.000067 0
0.001405 0.000133 0
0.002107 0.000198 0
0.002808 0.000262 0
0.003508 0.000324 0
0.004207 0.000385 0
0.004904 0.000443 0
0.005601 0.000498 0
0.006296 0.000551 0
0.006990 0.000601 0
0.007682 0.000648 0
0.008372 0.000691 0
0.009059 0.000732 0
0.009744 0.000769 0
0.010426 0.000803 0
0.011105 0.000834 0
0.011779 0.000862 0
0.012448 0.000886 0
0.013112 0.000908 0
0.013768 0.000927 0
0.014416 0.000943 0
0.015053 0.000956 0
0.015679 0.000967 0
0.016291 0.000975 0
0.016885 0.000981 0
0.017460 0.000985 0
0.018011 0.000986 0
0.018533 0.000984 0
0.019021 0.000981 0
0.019469 0.000975 0
0.019869 0.000966 0
0.020213 0.000955 0
0.020490 0.000941 0
0.020688 0.000924 0
0.020792 0.000903 0
0.020787 0.000879 0
0.020655 0.000851 0
0.020376 0.000818 0
0.019928 0.000780 0
0.019288 0.000737 0
0.018433 0.000687 0
0.017343 0.000630 0
0.016000 0.000567 0
0.014393 0.000496 0
0.012520 0.000419 0
0.010390 0.000334 0
0.008028 0.000244 0
0.005471 0.000148 0
0.002773 0.000050 0
0.000000 0.000000 0
0.000000 0.000000 0
0.000762 0.000074 0
0.001524 0.000147 0
0.002285 0.000220 0
0.003045 0.000291 0
0.003804 0.000360 0
0.004562 0.000426 0
0.005319 0.000490 0
0.006075 0.000551 0
0.006830 0.000609 0
0.007583 0.000664 0
0.008334 0.000715 0
0.009084 0.000763 0
0.009831 0.000806 0
0.010576 0.000847 0
0.011319 0.000883 0
0.012057 0.000916 0
0.012792 0.000946 0
0.013522 0.000972 0
0.014246 0.000995 0
0.014964 0.001015 0
0.015673 0.001032 0
0.016372 0.001046 0
0.017059 0.001057 0
0.017733 0.001065 0
0.018389 0.001071 0
0.019026 0.001074 0
0.019639 0.001075 0
0.020222 0.001073 0
0.020772 0.001069 0
0.021281 0.001062 0
0.021741 0.001053 0
0.022143 0.001041 0
0.022475 0.001026 0
0.022725 0.001008 0
0.022878 0.000986 0
0.022914 0.000960 0
0.022814 0.000930 0
0.022555 0.000896 0
0.022111 0.000855 0
0.021456 0.000809 0
0.020561 0.000755 0
0.019399 0.000695 0
0.017948 0.000626 0
0.016191 0.000549 0
0.014122 0.000464 0
0.011748 0.000371 0
0.009096 0.000271 0
0.006209 0.000165 0
0.003151 0.000056 0
0.000000 0.000000 0
0.000000 0.000000 0
0.000824 0.000082 0
0.001647 0.000163 0
0.002470 0.000244 0
0.003292 0.000322 0
0.004113 0.000398 0
0.004933 0.000472 0
0.005752 0.000542 0
0.006570 0.000610 0
0.007386 0.000673 0
0.008202 0.000733 0
0.009015 0.000788 0
0.009828 0.000840 0
0.010638 0.000887 0
0.011446 0.000930 0
0.012251 0.000970 0
0.013053 0.001005 0
0.013852 0.001036 0
0.014646 0.001064 0
0.015434 0.001088 0
0.016216 0.001109 0
0.016990 0.001126 0
0.017754 0.001140 0
0.018507 0.001151 0
0.019246 0.001160 0
0.019968 0.001165 0
0.020671 0.001168 0
0.021350 0.001168 0
0.022000 0.001166 0
0.022616 0.001161 0
0.023192 0.001153 0
0.023717 0.001143 0
0.024184 0.001130 0
0.024579 0.001114 0
0.024889 0.001095 0
0.025098 0.001072 0
0.025184 0.001045 0
0.025126 0.001013 0
0.024897 0.000977 0
0.024468 0.000934 0
0.023807 0.000885 0
0.022879 0.000828 0
0.021652 0.000763 0
0.020094 0.000689 0
0.018183 0.000606 0
0.015906 0.000513 0
0.013268 0.000411 0
0.010297 0.000301 0
0.007042 0.000184 0
0.003578 0.000062 0
0.000000 0.000000 0
0.000000 0.000000 0
0.000889 0.000091 0
0.001777 0.000181 0
0.002665 0.000270 0
0.003551 0.000357 0
0.004437 0.000441 0
0.005322 0.000522 0
0.006206 0.000600 0
0.007089 0.000673 0
0.007970 0.000743 0
0.008851 0.000808 0
0.009730 0.000868 0
0.010608 0.000924 0
0.011484 0.000975 0
0.012358 0.001021 0
0.013230 0.001063 0
0.014099 0.001100 0
0.014965 0.001133 0
0.015826 0.001162 0
0.016682 0.001187 0
0.017532 0.001209 0
0.018375 0.001226 0
0.019208 0.001241 0
0.020030 0.001252 0
0.020839 0.001260 0
0.021632 0.001265 0
0.022405 0.001267 0
0.023155 0.001266 0
0.023877 0.001263 0
0.024565 0.001257 0
0.025212 0.001249 0
0.025810 0.001238 0
0.026348 0.001224 0
0.026814 0.001206 0
0.027192 0.001186 0
0.027465 0.001162 0
0.027612 0.001133 0
0.027606 0.001100 0
0.027419 0.001061 0
0.027016 0.001017 0
0.026360 0.000965 0
0.025410 0.000905 0
0.024124 0.000835 0
0.022463 0.000756 0
0.020394 0.000666 0
0.017898 0.000566 0
0.014975 0.000454 0
0.011652 0.000333 0
0.007985 0.000204 0
0.004062 0.000069 0
0.000000 0.000000 0
0.000000 0.000000 0
0.000957 0.000101 0
0.001914 0.000201 0
0.002870 0.000299 0
0.003824 0.000395 0
0.004778 0.000488 0
0.005732 0.000578 0
0.006684 0.000663 0
0.007635 0.000744 0
0.008585 0.000819 0
0.009535 0.000890 0
0.010483 0.000955 0
0.011431 0.001015 0
0.012377 0.001070 0
0.013321 0.001120 0
0.014263 0.001164 0
0.015203 0.001203 0
0.016139 0.001238 0
0.017072 0.001268 0
0.018000 0.001294 0
0.018923 0.001316 0
0.019838 0.001333 0
0.020745 0.001347 0
0.021641 0.001358 0
0.022524 0.001365 0
0.023392 0.001370 0
0.024241 0.001371 0
0.025067 0.001369 0
0.025866 0.001365 0
0.026631 0.001358 0
0.027357 0.001349 0
0.028033 0.001336 0
0.028649 0.001321 0
0.029193 0.001303 0
0.029648 0.001281 0
0.029996 0.001255 0
0.030213 0.001225 0
0.030271 0.001191 0
0.030138 0.001150 0
0.029774 0.001103 0
0.029136 0.001049 0
0.028176 0.000985 0
0.026841 0.000912 0
0.025082 0.000828 0
0.022855 0.000731 0
0.020129 0.000623 0
0.016898 0.000501 0
0.013186 0.000368 0
0.009057 0.000225 0
0.004615 0.000076 0
0.000000 0.000000 0
0.000000 0.000000 0
0.001029 0.000112 0
0.002058 0.000223 0
0.003086 0.000332 0
0.004113 0.000439 0
0.005139 0.000541 0
0.006165 0.000640 0
0.007189 0.000733 0
0.008213 0.000822 0
0.009236 0.000904 0
0.010259 0.000981 0
0.011281 0.001051 0
0.012301 0.001116 0
0.013321 0.001175 0
0.014340 0.001227 0
0.015357 0.001274 0
0.016372 0.001315 0
0.017385 0.001351 0
0.018394 0.001382 0
0.019398 0.001408 0
0.020398 0.001430 0
0.021391 0.001448 0
0.022376 0.001461 0
0.023350 0.001471 0
0.024313 0.001477 0
0.025261 0.001481 0
0.026191 0.001481 0
0.027099 0.001478 0