# vtk DataFile Version 2.0
generated by CFD-lab course output (written by Tobias Neckel) 
ASCII

DATASET STRUCTURED_GRID
DIMENSIONS  51 51 1 
POINTS 2601 float

0.000000 0.000000 0
0.020000 0.000000 0
0.040000 0.000000 0
0.060000 0.000000 0
0.080000 0.000000 0
0.100000 0.000000 0
0.120000 0.000000 0
0.140000 0.000000 0
0.160000 0.000000 0
0.180000 0.000000 0
0.200000 0.000000 0
0.220000 0.000000 0
0.240000 0.000000 0
0.260000 0.000000 0
0.280000 0.000000 0
0.300000 0.000000 0
0.320000 0.000000 0
0.340000 0.000000 0
0.360000 0.000000 0
0.380000 0.000000 0
0.400000 0.000000 0
0.420000 0.000000 0
0.440000 0.000000 0
0.460000 0.000000 0
0.480000 0.000000 0
0.500000 0.000000 0
0.520000 0.000000 0
0.540000 0.000000 0
0.560000 0.000000 0
0.580000 0.000000 0
0.600000 0.000000 0
0.620000 0.000000 0
0.640000 0.000000 0
0.660000 0.000000 0
0.680000 0.000000 0
0.700000 0.000000 0
0.720000 0.000000 0
0.740000 0.000000 0
0.760000 0.000000 0
0.780000 0.000000 0
0.800000 0.000000 0
0.820000 0.000000 0
0.840000 0.000000 0
0.860000 0.000000 0
0.880000 0.000000 0
0.900000 0.000000 0
0.920000 0.000000 0
0.940000 0.000000 0
0.960000 0.000000 0
0.980000 0.000000 0
1.000000 0.000000 0
0.000000 0.020000 0
0.020000 0.020000 0
0.040000 0.020000 0
0.060000 0.020000 0
0.080000 0.020000 0
0.100000 0.020000 0
0.120000 0.020000 0
0.140000 0.020000 0
0.160000 0.020000 0
0.180000 0.020000 0
0.200000 0.020000 0
0.220000 0.020000 0
0.240000 0.020000 0
0.260000 0.020000 0
0.280000 0.020000 0
0.300000 0.020000 0
0.320000 0.020000 0
0.340000 0.020000 0
0.360000 0.020000 0
0.380000 0.020000 0
0.400000 0.020000 0
0.420000 0.020000 0
0.440000 0.020000 0
0.460000 0.020000 0
0.480000 0.020000 0
0.500000 0.020000 0
0.520000 0.020000 0
0.540000 0.020000 0
0.560000 0.020000 0
0.580000 0.020000 0
0.600000 0.020000 0
0.620000 0.020000 0
0.640000 0.020000 0
0.660000 0.020000 0
0.680000 0.020000 0
0.700000 0.020000 0
0.720000 0.020000 0
0.740000 0.020000 0
0.760000 0.020000 0
0.780000 0.020000 0
0.800000 0.020000 0
0.820000 0.020000 0
0.840000 0.020000 0
0.860000 0.020000 0
0.880000 0.020000 0
0.900000 0.020000 0
0.920000 0.020000 0
0.940000 0.020000 0
0.960000 0.020000 0
0.980000 0.020000 0
1.000000 0.020000 0
0.000000 0.040000 0
0.020000 0.040000 0
0.040000 0.040000 0
0.060000 0.040000 0
0.080000 0.040000 0
0.100000 0.040000 0
0.120000 0.040000 0
0.140000 0.040000 0
0.160000 0.040000 0
0.180000 0.040000 0
0.200000 0.040000 0
0.220000 0.040000 0
0.240000 0.040000 0
0.260000 0.040000 0
0.280000 0.040000 0
0.300000 0.040000 0
0.320000 0.040000 0
0.340000 0.040000 0
0.360000 0.040000 0
0.380000 0.040000 0
0.400000 0.040000 0
0.420000 0.040000 0
0.440000 0.040000 0
0.460000 0.040000 0
0.480000 0.040000 0
0.500000 0.040000 0
0.520000 0.040000 0
0.540000 0.040000 0
0.560000 0.040000 0
0.580000 0.040000 0
0.600000 0.040000 0
0.620000 0.040000 0
0.640000 0.040000 0
0.660000 0.040000 0
0.680000 0.040000 0
0.700000 0.040000 0
0.720000 0.040000 0
0.740000 0.040000 0
0.760000 0.040000 0
0.780000 0.040000 0
0.800000 0.040000 0
0.820000 0.040000 0
0.840000 0.040000 0
0.860000 0.040000 0
0.880000 0.040000 0
0.900000 0.040000 0
0.920000 0.040000 0
0.940000 0.040000 0
0.960000 0.040000 0
0.980000 0.040000 0
1.000000 0.040000 0
0.000000 0.060000 0
0.020000 0.060000 0
0.040000 0.060000 0
0.060000 0.060000 0
0.080000 0.060000 0
0.100000 0.060000 0
0.120000 0.060000 0
0.140000 0.060000 0
0.160000 0.060000 0
0.180000 0.060000 0
0.200000 0.060000 0
0.220000 0.060000 0
0.240000 0.060000 0
0.260000 0.060000 0
0.280000 0.060000 0
0.300000 0.060000 0
0.320000 0.060000 0
0.340000 0.060000 0
0.360000 0.060000 0
0.380000 0.060000 0
0.400000 0.060000 0
0.420000 0.060000 0
0.440000 0.060000 0
0.460000 0.060000 0
0.480000 0.060000 0
0.500000 0.060000 0
0.520000 0.060000 0
0.540000 0.060000 0
0.560000 0.060000 0
0.580000 0.060000 0
0.600000 0.060000 0
0.620000 0.060000 0
0.640000 0.060000 0
0.660000 0.060000 0
0.680000 0.060000 0
0.700000 0.060000 0
0.720000 0.060000 0
0.740000 0.060000 0
0.760000 0.060000 0
0.780000 0.060000 0
0.800000 0.060000 0
0.820000 0.060000 0
0.840000 0.060000 0
0.860000 0.060000 0
0.880000 0.060000 0
0.900000 0.060000 0
0.920000 0.060000 0
0.940000 0.060000 0
0.960000 0.060000 0
0.980000 0.060000 0
1.000000 0.060000 0
0.000000 0.080000 0
0.020000 0.080000 0
0.040000 0.080000 0
0.060000 0.080000 0
0.080000 0.080000 0
0.100000 0.080000 0
0.120000 0.080000 0
0.140000 0.080000 0
0.160000 0.080000 0
0.180000 0.080000 0
0.200000 0.080000 0
0.220000 0.080000 0
0.240000 0.080000 0
0.260000 0.080000 0
0.280000 0.080000 0
0.300000 0.080000 0
0.320000 0.080000 0
0.340000 0.080000 0
0.360000 0.080000 0
0.380000 0.080000 0
0.400000 0.080000 0
0.420000 0.080000 0
0.440000 0.080000 0
0.460000 0.080000 0
0.480000 0.080000 0
0.500000 0.080000 0
0.520000 0.080000 0
0.540000 0.080000 0
0.560000 0.080000 0
0.580000 0.080000 0
0.600000 0.080000 0
0.620000 0.080000 0
0.640000 0.080000 0
0.660000 0.080000 0
0.680000 0.080000 0
0.700000 0.080000 0
0.720000 0.080000 0
0.740000 0.080000 0
0.760000 0.080000 0
0.780000 0.080000 0
0.800000 0.080000 0
0.820000 0.080000 0
0.840000 0.080000 0
0.860000 0.080000 0
0.880000 0.080000 0
0.900000 0.080000 0
0.920000 0.080000 0
0.940000 0.080000 0
0.960000 0.080000 0
0.980000 0.080000 0
1.000000 0.080000 0
0.000000 0.100000 0
0.020000 0.100000 0
0.040000 0.100000 0
0.060000 0.100000 0
0.080000 0.100000 0
0.100000 0.100000 0
0.120000 0.100000 0
0.140000 0.100000 0
0.160000 0.100000 0
0.180000 0.100000 0
0.200000 0.100000 0
0.220000 0.100000 0
0.240000 0.100000 0
0.260000 0.100000 0
0.280000 0.100000 0
0.300000 0.100000 0
0.320000 0.100000 0
0.340000 0.100000 0
0.360000 0.100000 0
0.380000 0.100000 0
0.400000 0.100000 0
0.420000 0.100000 0
0.440000 0.100000 0
0.460000 0.100000 0
0.480000 0.100000 0
0.500000 0.100000 0
0.520000 0.100000 0
0.540000 0.100000 0
0.560000 0.100000 0
0.580000 0.100000 0
0.600000 0.100000 0
0.620000 0.100000 0
0.640000 0.100000 0
0.660000 0.100000 0
0.680000 0.100000 0
0.700000 0.100000 0
0.720000 0.100000 0
0.740000 0.100000 0
0.760000 0.100000 0
0.780000 0.100000 0
0.800000 0.100000 0
0.820000 0.100000 0
0.840000 0.100000 0
0.860000 0.100000 0
0.880000 0.100000 0
0.900000 0.100000 0
0.920000 0.100000 0
0.940000 0.100000 0
0.960000 0.100000 0
0.980000 0.100000 0
1.000000 0.100000 0
0.000000 0.120000 0
0.020000 0.120000 0
0.040000 0.120000 0
0.060000 0.120000 0
0.080000 0.120000 0
0.100000 0.120000 0
0.120000 0.120000 0
0.140000 0.120000 0
0.160000 0.120000 0
0.180000 0.120000 0
0.200000 0.120000 0
0.220000 0.120000 0
0.240000 0.120000 0
0.260000 0.120000 0
0.280000 0.120000 0
0.300000 0.120000 0
0.320000 0.120000 0
0.340000 0.120000 0
0.360000 0.120000 0
0.380000 0.120000 0
0.400000 0.120000 0
0.420000 0.120000 0
0.440000 0.120000 0
0.460000 0.120000 0
0.480000 0.120000 0
0.500000 0.120000 0
0.520000 0.120000 0
0.540000 0.120000 0
0.560000 0.120000 0
0.580000 0.120000 0
0.600000 0.120000 0
0.620000 0.120000 0
0.640000 0.120000 0
0.660000 0.120000 0
0.680000 0.120000 0
0.700000 0.120000 0
0.720000 0.120000 0
0.740000 0.120000 0
0.760000 0.120000 0
0.780000 0.120000 0
0.800000 0.120000 0
0.820000 0.120000 0
0.840000 0.120000 0
0.860000 0.120000 0
0.880000 0.120000 0
0.900000 0.120000 0
0.920000 0.120000 0
0.940000 0.120000 0
0.960000 0.120000 0
0.980000 0.120000 0
1.000000 0.120000 0
0.000000 0.140000 0
0.020000 0.140000 0
0.040000 0.140000 0
0.060000 0.140000 0
0.080000 0.140000 0
0.100000 0.140000 0
0.120000 0.140000 0
0.140000 0.140000 0
0.160000 0.140000 0
0.180000 0.140000 0
0.200000 0.140000 0
0.220000 0.140000 0
0.240000 0.140000 0
0.260000 0.140000 0
0.280000 0.140000 0
0.300000 0.140000 0
0.320000 0.140000 0
0.340000 0.140000 0
0.360000 0.140000 0
0.380000 0.140000 0
0.400000 0.140000 0
0.420000 0.140000 0
0.440000 0.140000 0
0.460000 0.140000 0
0.480000 0.140000 0
0.500000 0.140000 0
0.520000 0.140000 0
0.540000 0.140000 0
0.560000 0.140000 0
0.580000 0.140000 0
0.600000 0.140000 0
0.620000 0.140000 0
0.640000 0.140000 0
0.660000 0.140000 0
0.680000 0.140000 0
0.700000 0.140000 0
0.720000 0.140000 0
0.740000 0.140000 0
0.760000 0.140000 0
0.780000 0.140000 0
0.800000 0.140000 0
0.820000 0.140000 0
0.840000 0.140000 0
0.860000 0.140000 0
0.880000 0.140000 0
0.900000 0.140000 0
0.920000 0.140000 0
0.940000 0.140000 0
0.960000 0.140000 0
0.980000 0.140000 0
1.000000 0.140000 0
0.000000 0.160000 0
0.020000 0.160000 0
0.040000 0.160000 0
0.060000 0.160000 0
0.080000 0.160000 0
0.100000 0.160000 0
0.120000 0.160000 0
0.140000 0.160000 0
0.160000 0.160000 0
0.180000 0.160000 0
0.200000 0.160000 0
0.220000 0.160000 0
0.240000 0.160000 0
0.260000 0.160000 0
0.280000 0.160000 0
0.300000 0.160000 0
0.320000 0.160000 0
0.340000 0.160000 0
0.360000 0.160000 0
0.380000 0.160000 0
0.400000 0.160000 0
0.420000 0.160000 0
0.440000 0.160000 0
0.460000 0.160000 0
0.480000 0.160000 0
0.500000 0.160000 0
0.520000 0.160000 0
0.540000 0.160000 0
0.560000 0.160000 0
0.580000 0.160000 0
0.600000 0.160000 0
0.620000 0.160000 0
0.640000 0.160000 0
0.660000 0.160000 0
0.680000 0.160000 0
0.700000 0.160000 0
0.720000 0.160000 0
0.740000 0.160000 0
0.760000 0.160000 0
0.780000 0.160000 0
0.800000 0.160000 0
0.820000 0.160000 0
0.840000 0.160000 0
0.860000 0.160000 0
0.880000 0.160000 0
0.900000 0.160000 0
0.920000 0.160000 0
0.940000 0.160000 0
0.960000 0.160000 0
0.980000 0.160000 0
1.000000 0.160000 0
0.000000 0.180000 0
0.020000 0.180000 0
0.040000 0.180000 0
0.060000 0.180000 0
0.080000 0.180000 0
0.100000 0.180000 0
0.120000 0.180000 0
0.140000 0.180000 0
0.160000 0.180000 0
0.180000 0.180000 0
0.200000 0.180000 0
0.220000 0.180000 0
0.240000 0.180000 0
0.260000 0.180000 0
0.280000 0.180000 0
0.300000 0.180000 0
0.320000 0.180000 0
0.340000 0.180000 0
0.360000 0.180000 0
0.380000 0.180000 0
0.400000 0.180000 0
0.420000 0.180000 0
0.440000 0.180000 0
0.460000 0.180000 0
0.480000 0.180000 0
0.500000 0.180000 0
0.520000 0.180000 0
0.540000 0.180000 0
0.560000 0.180000 0
0.580000 0.180000 0
0.600000 0.180000 0
0.620000 0.180000 0
[...]
POINT_DATA 2601 

VECTORS velocity float
0.000000 0.000000 0
0.000000 0.000000 0
0.000000 0.000000 0
0.000000 0.000000 0
0.000000 0.000000 0
0.000000 0.000000 0
0.000000 0.000000 0
0.000000 0.000000 0
0.000000 0.000000 0
0.000000 0.000000 0
0.000000 0.000000 0
0.000000 0.000000 0
0.000000 0.000000 0
0.000000 0.000000 0
0.000000 0.000000 0
0.000000 0.000000 0
0.000000 0.000000 0
0.000000 0.000000 0
0.000000 0.000000 0
0.000000 0.000000 0
0.000000 0.000000 0
0.000000 0.000000 0
0.000000 0.000000 0
0.000000 0.000000 0
0.000000 0.000000 0
0.000000 0.000000 0
0.000000 0.000000 0
0.000000 0.000000 0
0.000000 0.000000 0
0.000000 0.000000 0
0.000000 0.000000 0
0.000000 0.000000 0
0.000000 0.000000 0
0.000000 0.000000 0
0.000000 0.000000 0
0.000000 0.000000 0
0.000000 0.000000 0
0.000000 0.000000 0
0.000000 0.000000 0
0.000000 0.000000 0
0.000000 0.000000 0
0.000000 0.000000 0
0.000000 0.000000 0
0.000000 0.000000 0
0.000000 0.000000 0
0.000000 0.000000 0
0.000000 0.000000 0
0.000000 0.000000 0
0.000000 0.000000 0
0.000000 0.000000 0
0.000000 0.000000 0
0.000000 0.000000 0
0.000047 0.000004 0
0.000095 0.000008 0
0.000142 0.000012 0
0.000189 0.000015 0
0.000237 0.000019 0
0.000284 0.000023 0
0.000330 0.000026 0
0.000377 0.000030 0
0.000424 0.000033 0
0.000470 0.000036 0
0.000516 0.000039 0
0.000562 0.000042 0
0.000607 0.000044 0
0.000652 0.000047 0
0.000697 0.000049 0
0.000741 0.000051 0
0.000785 0.000053 0
0.000827 0.000055 0
0.000869 0.000057 0
0.000910 0.000058 0
0.000950 0.000059 0
0.000989 0.000061 0
0.001026 0.000061 0
0.001061 0.000062 0
0.001095 0.000063 0
0.001126 0.000063 0
0.001154 0.000063 0
0.001180 0.000063 0
0.001202 0.000063 0
0.001220 0.000062 0
0.001233 0.000062 0
0.001241 0.000061 0
0.001244 0.000060 0
0.001240 0.000058 0
0.001230 0.000057 0
0.001211 0.000055 0
0.001185 0.000052 0
0.001149 0.000050 0
0.001104 0.000047 0
0.001049 0.000044 0
0.000983 0.000040 0
0.000908 0.000037 0
0.000822 0.000032 0
0.000726 0.000028 0
0.000621 0.000023 0
0.000507 0.000018 0
0.000387 0.000013 0
0.000261 0.000008 0
0.000132 0.000003 0
0.000000 0.000000 0
0.000000 0.000000 0
0.000095 0.000008 0
0.000190 0.000016 0
0.000284 0.000023 0
0.000379 0.000031 0
0.000473 0.000038 0
0.000567 0.000045 0
0.000661 0.000053 0
0.000755 0.000059 0
0.000848 0.000066 0
0.000941 0.000072 0
0.001033 0.000078 0
0.001124 0.000084 0
0.001215 0.000089 0
0.001306 0.000094 0
0.001395 0.000099 0
0.001483 0.000103 0
0.001570 0.000107 0
0.001656 0.000111 0
0.001740 0.000114 0
0.001822 0.000117 0
0.001902 0.000119 0
0.001980 0.000121 0
0.002054 0.000123 0
0.002125 0.000125 0
0.002192 0.000126 0
0.002255 0.000126 0
0.002312 0.000127 0
0.002363 0.000126 0
0.002408 0.000126 0
0.002444 0.000125 0
0.002472 0.000124 0
0.002489 0.000122 0
0.002495 0.000120 0
0.002488 0.000117 0
0.002467 0.000113 0
0.002431 0.000110 0
0.002378 0.000105 0
0.002308 0.000100 0
0.002218 0.000094 0
0.002107 0.000088 0
0.001977 0.000081 0
0.001825 0.000073 0
0.001653 0.000065 0
0.001460 0.000056 0
0.001249 0.000047 0
0.001022 0.000037 0
0.000780 0.000027 0
0.000526 0.000016 0
0.000265 0.000005 0
0.000000 0.000000 0
0.000000 0.000000 0
0.000142 0.000012 0
0.000285 0.000023 0
0.000427 0.000035 0
0.000569 0.000046 0
0.000710 0.000058 0
0.000852 0.000068 0
0.000993 0.000079 0
0.001133 0.000089 0
0.001273 0.000099 0
0.001412 0.000109 0
0.001551 0.000118 0
0.001688 0.000126 0
0.001825 0.000134 0
0.001960 0.000142 0
0.002095 0.000149 0
0.002227 0.000155 0
0.002358 0.000161 0
0.002487 0.000166 0
0.002613 0.000171 0
0.002737 0.000176 0
0.002858 0.000179 0
0.002974 0.000183 0
0.003087 0.000185 0
0.003194 0.000187 0
0.003295 0.000189 0
0.003390 0.000190 0
0.003477 0.000190 0
0.003555 0.000190 0
0.003623 0.000189 0
0.003678 0.000188 0
0.003721 0.000186 0
0.003748 0.000183 0
0.003759 0.000180 0
0.003750 0.000176 0
0.003721 0.000171 0
0.003668 0.000165 0
0.003590 0.000158 0
0.003485 0.000151 0
0.003351 0.000142 0
0.003186 0.000133 0
0.002990 0.000122 0
0.002762 0.000111 0
0.002503 0.000098 0
0.002213 0.000085 0
0.001894 0.000071 0
0.001549 0.000056 0
0.001183 0.000040 0
0.000799 0.000024 0
0.000402 0.000008 0
0.000000 0.000000 0
0.000000 0.000000 0
0.000190 0.000016 0
0.000380 0.000031 0
0.000570 0.000047 0
0.000759 0.000062 0
0.000948 0.000077 0
0.001137 0.000092 0
0.001325 0.000106 0
0.001513 0.000120 0
0.001700 0.000133 0
0.001885 0.000146 0
0.002070 0.000158 0
0.002254 0.000169 0
0.002437 0.000180 0
0.002618 0.000190 0
0.002797 0.000199 0
0.002975 0.000208 0
0.003150 0.000216 0
0.003322 0.000223 0
0.003492 0.000229 0
0.003657 0.000235 0
0.003819 0.000240 0
0.003976 0.000244 0
0.004126 0.000248 0
0.004271 0.000251 0
0.004408 0.000253 0
0.004535 0.000254 0
0.004653 0.000255 0
0.004759 0.000255 0
0.004851 0.000254 0
0.004928 0.000252 0
0.004987 0.000249 0
0.005026 0.000246 0
0.005043 0.000241 0
0.005034 0.000236 0
0.004998 0.000229 0
0.004930 0.000222 0
0.004828 0.000213 0
0.004690 0.000203 0
0.004513 0.000191 0
0.004295 0.000179 0
0.004034 0.000165 0
0.003729 0.000149 0
0.003381 0.000133 0
0.002991 0.000115 0
0.002562 0.000096 0
0.002097 0.000075 0
0.001601 0.000055 0
0.001082 0.000033 0
0.000545 0.000011 0
0.000000 0.000000 0
0.000000 0.000000 0
0.000238 0.000020 0
0.000476 0.000040 0
0.000714 0.000059 0
0.000951 0.000078 0
0.001188 0.000097 0
0.001424 0.000116 0
0.001660 0.000134 0
0.001894 0.000151 0
0.002128 0.000167 0
0.002361 0.000183 0
0.002593 0.000198 0
0.002824 0.000213 0
0.003053 0.000226 0
0.003280 0.000239 0
0.003505 0.000251 0
0.003727 0.000261 0
0.003947 0.000271 0
0.004164 0.000280 0
0.004377 0.000288 0
0.004585 0.000295 0
0.004789 0.000302 0
0.004986 0.000307 0
0.005176 0.000312 0
0.005359 0.000315 0
0.005532 0.000318 0
0.005694 0.000319 0
0.005844 0.000320 0
0.005979 0.000320 0
0.006098 0.000319 0
0.006197 0.000317 0
0.006275 0.000313 0
0.006328 0.000309 0
0.006353 0.000303 0
0.006347 0.000297 0
0.006305 0.000289 0
0.006225 0.000279 0
0.006102 0.000268 0
0.005933 0.000255 0
0.005714 0.000241 0
0.005443 0.000225 0
0.005116 0.000208 0
0.004734 0.000189 0
0.004297 0.000168 0
0.003804 0.000145 0
0.003261 0.000121 0
0.002671 0.000096 0
0.002041 0.000069 0
0.001379 0.000042 0
0.000695 0.000014 0
0.000000 0.000000 0
0.000000 0.000000 0
0.000286 0.000024 0
0.000572 0.000048 0
0.000858 0.000072 0
0.001144 0.000095 0
0.001429 0.000118 0
0.001713 0.000140 0
0.001996 0.000162 0
0.002279 0.000183 0
0.002561 0.000203 0
0.002841 0.000222 0
0.003120 0.000240 0
0.003398 0.000258 0
0.003673 0.000274 0
0.003947 0.000289 0
0.004218 0.000303 0
0.004487 0.000316 0
0.004752 0.000328 0
0.005014 0.000339 0
0.005271 0.000348 0
0.005523 0.000357 0
0.005769 0.000365 0
0.006008 0.000371 0
0.006240 0.000376 0
0.006462 0.000381 0
0.006673 0.000384 0
0.006871 0.000386 0
0.007054 0.000387 0
0.007221 0.000386 0
0.007368 0.000385 0
0.007493 0.000383 0
0.007592 0.000379 0
0.007661 0.000374 0
0.007697 0.000367 0
0.007696 0.000359 0
0.007652 0.000349 0
0.007562 0.000338 0
0.007420 0.000325 0
0.007222 0.000310 0
0.006963 0.000293 0
0.006640 0.000274 0
0.006249 0.000253 0
0.005789 0.000229 0
0.005259 0.000204 0
0.004661 0.000177 0
0.003999 0.000148 0
0.003278 0.000117 0
0.002507 0.000084 0
0.001695 0.000051 0
0.000855 0.000017 0
0.000000 0.000000 0
0.000000 0.000000 0
0.000335 0.000028 0
0.000670 0.000057 0
0.001005 0.000085 0
0.001339 0.000112 0
0.001672 0.000139 0
0.002005 0.000166 0
0.002337 0.000191 0
0.002668 0.000216 0
0.002997 0.000239 0
0.003326 0.000262 0
0.003653 0.000283 0
0.003978 0.000304 0
0.004301 0.000323 0
0.004622 0.000341 0
0.004940 0.000357 0
0.005255 0.000372 0
0.005567 0.000386 0
0.005874 0.000399 0
0.006177 0.000410 0
0.006474 0.000420 0
0.006764 0.000429 0
0.007046 0.000436 0
0.007320 0.000442 0
0.007582 0.000447 0
0.007833 0.000451 0
0.008069 0.000453 0
0.008289 0.000455 0
0.008489 0.000454 0
0.008667 0.000453 0
0.008819 0.000450 0
0.008942 0.000445 0
0.009031 0.000440 0
0.009082 0.000432 0
0.009088 0.000423 0
0.009046 0.000411 0
0.008949 0.000398 0
0.008791 0.000383 0
0.008567 0.000366 0
0.008270 0.000346 0
0.007896 0.000324 0
0.007441 0.000299 0
0.006902 0.000272 0
0.006279 0.000242 0
0.005572 0.000210 0
0.004785 0.000175 0
0.003926 0.000139 0
0.003005 0.000100 0
0.002033 0.000061 0
0.001026 0.000020 0
0.000000 0.000000 0
0.000000 0.000000 0
0.000384 0.000033 0
0.000769 0.000066 0
0.001153 0.000098 0
0.001536 0.000130 0
0.001919 0.000161 0
0.002300 0.000192 0
0.002681 0.000221 0
0.003061 0.000250 0
0.003440 0.000277 0
0.003817 0.000303 0
0.004192 0.000328 0
0.004566 0.000351 0
0.004937 0.000373 0
0.005306 0.000394 0
0.005672 0.000413 0
0.006035 0.000430 0
0.006394 0.000446 0
0.006748 0.000461 0
0.007097 0.000473 0
0.007440 0.000485 0
0.007776 0.000495 0
0.008103 0.000503 0
0.008420 0.000510 0
0.008726 0.000516 0
0.009018 0.000520 0
0.009294 0.000523 0
0.009552 0.000524 0
0.009788 0.000524 0
0.010000 0.000522 0
0.010183 0.000519 0
0.010333 0.000514 0
0.010445 0.000507 0
0.010513 0.000499 0
0.010532 0.000488 0
0.010495 0.000476 0
0.010395 0.000461 0
0.010225 0.000444 0
0.009977 0.000424 0
0.009645 0.000401 0
0.009223 0.000376 0
0.008704 0.000347 0
0.008086 0.000316 0
0.007366 0.000282 0
0.006545 0.000245 0
0.005629 0.000204 0
0.004624 0.000162 0
0.003542 0.000117 0
0.002398 0.000071 0
0.001210 0.000024 0
0.000000 0.000000 0
0.000000 0.000000 0
0.000435 0.000038 0
0.000869 0.000075 0
0.001303 0.000112 0
0.001736 0.000149 0
0.002169 0.000185 0
0.002601 0.000220 0
0.003031 0.000253 0
0.003461 0.000286 0
0.003889 0.000317 0
0.004316 0.000347 0
0.004741 0.000375 0
0.005164 0.000401 0
0.005584 0.000426 0
0.006002 0.000449 0
0.006417 0.000471 0
0.006829 0.000490 0
0.007236 0.000508 0
0.007639 0.000524 0
0.008036 0.000539 0
0.008426 0.000552 0
0.008808 0.000563 0
0.009182 0.000572 0
0.009545 0.000580 0
0.009895 0.000587 0
0.010231 0.000591 0
0.010550 0.000594 0
0.010848 0.000596 0
0.011124 0.000595 0
0.011372 0.000593 0
0.011589 0.000590 0
0.011770 0.000584 0
0.011909 0.000577 0
0.011999 0.000567 0
0.012034 0.000556 0
0.012007 0.000542 0
0.011908 0.000525 0
0.011730 0.000506 0
0.011463 0.000484 0
0.011099 0.000459 0
0.010630 0.000430 0
0.010049 0.000398 0
0.009351 0.000363 0
0.008532 0.000324 0
0.007594 0.000281 0
0.006539 0.000235 0
0.005378 0.000187 0
0.004124 0.000135 0
0.002794 0.000082 0
0.001411 0.000027 0
0.000000 0.000000 0
0.000000 0.000000 0
0.000486 0.000043 0
0.000971 0.000085 0
0.001456 0.000127 0
0.001940 0.000169 0
0.002424 0.000209 0
0.002906 0.000249 0
0.003388 0.000287 0
0.003868 0.000323 0
0.004347 0.000359 0
0.004824 0.000392 0
0.005300 0.000424 0
0.005773 0.000453 0
0.006244 0.000481 0
0.006713 0.000507 0
0.007178 0.000531 0
0.007639 0.000553 0
0.008097 0.000573 0
0.008549 0.000591 0
0.008995 0.000607 0
0.009435 0.000621 0
0.009866 0.000634 0
0.010288 0.000644 0
0.010698 0.000653 0
0.011096 0.000659 0
0.011478 0.000665 0
0.011841 0.000668 0
0.012184 0.000669 0
0.012502 0.000669 0
0.012790 0.000667 0
0.013045 0.000663 0
0.013261 0.000657 0
0.013430 0.000649 0
0.013547 0.000638 0
0.013603 0.000625 0
0.013590 0.000610 0
0.013498 0.000592 0
0.013316 0.000571 0
0.013035 0.000546 0
0.012643 0.000518 0
0.012131 0.000487 0
0.011489 0.000451 0
0.010710 0.000411 0
0.009790 0.000368 0
0.008728 0.000320 0
0.007529 0.000268 0
0.006201 0.000213 0
0.004760 0.000154 0
0.003228 0.000094 0
0.001631 0.000031 0
0.000000 0.000000 0
0.000000 0.000000 0
0.000538 0.000048 0
0.001076 0.000096 0
0.001613 0.000143 0
0.002149 0.000190 0
0.002685 0.000235 0
0.003219 0.000280 0
0.003753 0.000322 0
0.004285 0.000363 0
0.004816 0.000403 0
0.005345 0.000440 0
0.005872 0.000475 0
0.006397 0.000508 0
0.006920 0.000539 0
0.007440 0.000568 0
0.007957 0.000594 0
0.008470 0.000619 0
0.008979 0.000641 0
0.009483 0.000660 0
0.009980 0.000678 0
0.010471 0.000693 0
0.010953 0.000707 0
0.011425 0.000718 0
0.011885 0.000728 0
0.012332 0.000735 0
0.012763 0.000740 0
0.013175 0.000744 0
0.013564 0.000746 0
0.013928 0.000745 0
0.014260 0.000743 0
0.014557 0.000738 0
0.014811 0.000732 0
0.015017 0.000723 0
0.015165 0.000712 0
0.015248 0.000698 0
0.015254 0.000681 0
0.015174 0.000661 0
0.014994 0.000638 0
0.014704 0.000611 0
0.014288 0.000581 0
0.013736 0.000546 0
0.013035 0.000507 0
0.012176 0.000463 0
0.011153 0.000414 0
0.009962 0.000361 0
0.008609 0.000303 0
0.007102 0.000241 0
0.005459 0.000175 0
0.003706 0.000106 0
0.001874 0.000036 0
0.000000 0.000000 0
0.000000 0.000000 0
0.000592 0.000054 0
0.001183 0.000108 0
0.001773 0.000160 0
0.002363 0.000212 0
0.002952 0.000263 0
0.003540 0.000313 0
0.004127 0.000360 0
0.004713 0.000406 0
0.005297 0.000449 0
0.005879 0.000491 0
0.006460 0.000530 0
0.007039 0.000566 0
0.007615 0.000600 0
0.008188 0.000632 0
0.008759 0.000661 0
0.009325 0.000688 0
0.009887 0.000712 0
0.010444 0.000733 0
0.010995 0.000752 0
0.011538 0.000769 0
0.012073 0.000783 0
0.012598 0.000796 0
0.013111 0.000806 0
0.013610 0.000814 0
0.014093 0.000819 0
0.014556 0.000823 0
0.014996 0.000824 0
0.015408 0.000824 0
0.015789 0.000821 0
0.016131 0.000816 0
0.016430 0.000809 0
0.016676 0.000800 0
0.016861 0.000787 0
0.016976 0.000772 0
0.017008 0.000754 0
0.016946 0.000733 0
0.016775 0.000708 0
0.016481 0.000679 0
0.016048 0.000646 0
0.015460 0.000608 0
0.014703 0.000565 0
0.013765 0.000517 0
0.012636 0.000464 0
0.011311 0.000404 0
0.009794 0.000340 0
0.008094 0.000270 0
0.006231 0.000197 0
0.004235 0.000120 0
0.002143 0.000040 0
0.000000 0.000000 0
0.000000 0.000000 0
0.000647 0.000060 0
0.001293 0.000120 0
0.001939 0.000179 0
0.002584 0.000237 0
0.003228 0.000293 0
0.003871 0.000348 0
0.004513 0.000401 0
0.005154 0.000451 0
0.005793 0.000499 0
0.006431 0.000545 0
0.007066 0.000588 0
0.007700 0.000628 0
0.008332 0.000666 0
0.008960 0.000700 0
0.009586 0.000732 0
0.010208 0.000760 0
0.010825 0.000786 0
0.011437 0.000810 0
0.012044 0.000830 0
0.012643 0.000848 0
0.013233 0.000864 0
0.013814 0.000877 0
0.014382 0.000887 0
0.014936 0.000895 0
0.015474 0.000901 0
0.015991 0.000905 0
0.016485 0.000907 0
0.016950 0.000906 0
0.017383 0.000903 0
0.017776 0.000897 0
0.018123 0.000890 0
0.018416 0.000879 0
0.018644 0.000866 0
0.018797 0.000850 0
0.018862 0.000831 0
0.018825 0.000808 0
0.018670 0.000781 0
0.018379 0.000750 0
0.017934 0.000715 0
0.017317 0.000674 0
0.016508 0.000627 0
0.015492 0.000575 0
0.014255 0.000516 0
0.012791 0.000451 0
0.011099 0.000380 0
0.009191 0.000302 0
0.007088 0.000220 0
0.004824 0.000134 0
0.002443 0.000045 0
0.000000 0.000000 0
0.000000 0.000000 0
0.000704 0.000067 0
0.001407 0.000133 0
0.002110 0.000199 0
0.002812 0.000263 0
0.003513 0.000326 0
0.004213 0.000386 0
0.004912 0.000445 0
0.005610 0.000500 0
0.006306 0.000553 0
0.007001 0.000603 0
0.007694 0.000651 0
0.008385 0.000694 0
0.009074 0.000735 0
0.009760 0.000773 0
0.010443 0.000807 0
0.011123 0.000838 0
0.011798 0.000866 0
0.012468 0.000891 0
0.013133 0.000913 0
0.013790 0.000932 0
0.014439 0.000948 0
0.015077 0.000962 0
0.015704 0.000973 0
0.016317 0.000981 0
0.016912 0.000987 0
0.017488 0.000991 0
0.018039 0.000992 0
0.018562 0.000991 0
0.019052 0.000987 0
0.019500 0.000982 0
0.019902 0.000973 0
0.020246 0.000962 0
0.020523 0.000948 0
0.020722 0.000931 0
0.020827 0.000910 0
0.020822 0.000886 0
0.020690 0.000858 0
0.020411 0.000825 0
0.019962 0.000787 0
0.019321 0.000743 0
0.018466 0.000693 0
0.017374 0.000636 0
0.016029 0.000572 0
0.014420 0.000501 0
0.012544 0.000422 0
0.010410 0.000337 0
0.008043 0.000246 0
0.005481 0.000150 0
0.002779 0.000050 0
0.000000 0.000000 0
0.000000 0.000000 0
0.000763 0.000074 0
0.001526 0.000148 0
0.002288 0.000221 0
0.003049 0.000292 0
0.003810 0.000361 0
0.004569 0.000428 0
0.005327 0.000492 0
0.006084 0.000554 0
0.006840 0.000612 0
0.007594 0.000667 0
0.008346 0.000718 0
0.009097 0.000766 0
0.009846 0.000810 0
0.010592 0.000850 0
0.011335 0.000887 0
0.012075 0.000921 0
0.012811 0.000951 0
0.013542 0.000977 0
0.014267 0.001000 0
0.014986 0.001020 0
0.015696 0.001037 0
0.016396 0.001051 0
0.017085 0.001063 0
0.017759 0.001071 0
0.018417 0.001077 0
0.019054 0.001081 0
0.019668 0.001081 0
0.020252 0.001080 0
0.020803 0.001076 0
0.021313 0.001069 0
0.021774 0.001060 0
0.022176 0.001048 0
0.022509 0.001033 0
0.022760 0.001015 0
0.022913 0.000993 0
0.022950 0.000968 0
0.022850 0.000938 0
0.022591 0.000903 0
0.022147 0.000862 0
0.021491 0.000815 0
0.020595 0.000761 0
0.019432 0.000700 0
0.017979 0.000631 0
0.016219 0.000554 0
0.014147 0.000468 0
0.011769 0.000374 0
0.009112 0.000273 0
0.006220 0.000167 0
0.003157 0.000056 0
0.000000 0.000000 0
0.000000 0.000000 0
0.000825 0.000082 0
0.001650 0.000164 0
0.002474 0.000244 0
0.003297 0.000323 0
0.004119 0.000400 0
0.004940 0.000473 0
0.005760 0.000544 0
0.006579 0.000612 0
0.007397 0.000675 0
0.008213 0.000735 0
0.009028 0.000791 0
0.009841 0.000843 0
0.010652 0.000891 0
0.011461 0.000934 0
0.012268 0.000974 0
0.013071 0.001009 0
0.013871 0.001041 0
0.014665 0.001069 0
0.015455 0.001093 0
0.016238 0.001114 0
0.017013 0.001132 0
0.017778 0.001146 0
0.018532 0.001157 0
0.019272 0.001166 0
0.019995 0.001172 0
0.020699 0.001175 0
0.021379 0.001175 0
0.022030 0.001173 0
0.022647 0.001168 0
0.023223 0.001161 0
0.023750 0.001151 0
0.024217 0.001138 0
0.024613 0.001122 0
0.024924 0.001102 0
0.025133 0.001079 0
0.025220 0.001052 0
0.025162 0.001021 0
0.024934 0.000984 0
0.024505 0.000941 0
0.023843 0.000891 0
0.022914 0.000834 0
0.021685 0.000769 0
0.020125 0.000694 0
0.018212 0.000611 0
0.015932 0.000517 0
0.013290 0.000414 0
0.010314 0.000303 0
0.007053 0.000185 0
0.003584 0.000062 0
0.000000 0.000000 0
0.000000 0.000000 0
0.000890 0.000091 0
0.001779 0.000182 0
0.002668 0.000271 0
0.003556 0.000358 0
0.004443 0.000442 0
0.005329 0.000524 0
0.006214 0.000602 0
0.007098 0.000675 0
0.007980 0.000745 0
0.008862 0.000810 0
0.009742 0.000871 0
0.010621 0.000927 0
0.011499 0.000978 0
0.012374 0.001025 0
0.013247 0.001067 0
0.014117 0.001105 0
0.014984 0.001138 0
0.015846 0.001167 0
0.016703 0.001193 0
0.017554 0.001214 0
0.018398 0.001232 0
0.019232 0.001246 0
0.020055 0.001258 0
0.020865 0.001266 0
0.021659 0.001271 0
0.022433 0.001273 0
0.023184 0.001273 0
0.023907 0.001270 0
0.024596 0.001264 0
0.025244 0.001256 0
0.025843 0.001245 0
0.026381 0.001231 0
0.026848 0.001214 0
0.027227 0.001194 0
0.027501 0.001169 0
0.027648 0.001141 0
0.027643 0.001108 0
0.027456 0.001069 0
0.027053 0.001024 0
0.026396 0.000972 0
0.025445 0.000911 0
0.024158 0.000841 0
0.022495 0.000762 0
0.020424 0.000671 0
0.017925 0.000570 0
0.014998 0.000458 0
0.011670 0.000336 0
0.007997 0.000205 0
0.004069 0.000069 0
0.000000 0.000000 0
0.000000 0.000000 0
0.000958 0.000101 0
0.001916 0.000202 0
0.002873 0.000300 0
0.003829 0.000397 0
0.004784 0.000490 0
0.005738 0.000579 0
0.006691 0.000665 0
0.007644 0.000746 0
0.008595 0.000822 0
0.009546 0.000893 0
0.010495 0.000958 0
0.011444 0.001019 0
0.012391 0.001074 0
0.013336 0.001123 0
0.014279 0.001168 0
0.015220 0.001208 0
0.016158 0.001243 0
0.017092 0.001273 0
0.018021 0.001299 0
0.018944 0.001321 0
0.019861 0.001339 0
0.020768 0.001353 0
0.021665 0.001364 0
0.022549 0.001372 0
0.023418 0.001376 0
0.024268 0.001378 0
0.025096 0.001376 0
0.025895 0.001372 0
0.026662 0.001365 0
0.027388 0.001356 0
0.028065 0.001344 0
0.028682 0.001329 0
0.029227 0.001310 0
0.029683 0.001288 0
0.030031 0.001263 0
0.030249 0.001233 0
0.030308 0.001198 0
0.030175 0.001158 0
0.029811 0.001111 0
0.029173 0.001056 0
0.028211 0.000992 0
0.026875 0.000918 0
0.025115 0.000834 0
0.022885 0.000737 0
0.020156 0.000627 0
0.016921 0.000505 0
0.013205 0.000371 0
0.009070 0.000227 0
0.004622 0.000077 0
0.000000 0.000000 0
0.000000 0.000000 0
0.001031 0.000112 0
0.002060 0.000224 0
0.003089 0.000333 0
0.004117 0.000440 0
0.005145 0.000543 0
0.006171 0.000641 0
0.007197 0.000735 0
0.008222 0.000824 0
0.009246 0.000907 0
0.010269 0.000984 0
0.011292 0.001054 0
0.012314 0.001119 0
0.013335 0.001178 0
0.014355 0.001231 0
0.015373 0.001278 0
0.016389 0.001320 0
0.017403 0.001356 0
0.018413 0.001387 0
0.019418 0.001413 0
0.020419 0.001435 0
0.021413 0.001453 0
0.022399 0.001467 0
0.023374 0.001477 0
0.024338 0.001484 0
0.025287 0.001487 0
0.026218 0.001488 0
0.027127 0.001485 0