# vtk DataFile Version 2.0
generated by CFD-lab course output (written by Tobias Neckel) 
ASCII

DATASET STRUCTURED_GRID
DIMENSIONS  51 51 1 
POINTS 2601 float

0.000000 0.000000 0
0.020000 0.000000 0
0.040000 0.000000 0
0.060000 0.000000 0
0.080000 0.000000 0
0.100000 0.000000 0
0.120000 0.000000 0
0.140000 0.000000 0
0.160000 0.000000 0
0.180000 0.000000 0
0.200000 0.000000 0
0.220000 0.000000 0
0.240000 0.000000 0
0.260000 0.000000 0
0.280000 0.000000 0
0.300000 0.000000 0
0.320000 0.000000 0
0.340000 0.000000 0
0.360000 0.000000 0
0.380000 0.000000 0
0.400000 0.000000 0
0.420000 0.000000 0
0.440000 0.000000 0
0.460000 0.000000 0
0.480000 0.000000 0
0.500000 0.000000 0
0.520000 0.000000 0
0.540000 0.000000 0
0.560000 0.000000 0
0.580000 0.000000 0
0.600000 0.000000 0
0.620000 0.000000 0
0.640000 0.000000 0
0.660000 0.000000 0
0.680000 0.000000 0
0.700000 0.000000 0
0.720000 0.000000 0
0.740000 0.000000 0
0.760000 0.000000 0
0.780000 0.000000 0
0.800000 0.000000 0
0.820000 0.000000 0
0.840000 0.000000 0
0.860000 0.000000 0
0.880000 0.000000 0
0.900000 0.000000 0
0.920000 0.000000 0
0.940000 0.000000 0
0.960000 0.000000 0
0.980000 0.000000 0
1.000000 0.000000 0
0.000000 0.020000 0
0.020000 0.020000 0
0.040000 0.020000 0
0.060000 0.020000 0
0.080000 0.020000 0
0.100000 0.020000 0
0.120000 0.020000 0
0.140000 0.020000 0
0.160000 0.020000 0
0.180000 0.020000 0
0.200000 0.020000 0
0.220000 0.020000 0
0.240000 0.020000 0
0.260000 0.020000 0
0.280000 0.020000 0
0.300000 0.020000 0
0.320000 0.020000 0
0.340000 0.020000 0
0.360000 0.020000 0
0.380000 0.020000 0
0.400000 0.020000 0
0.420000 0.020000 0
0.440000 0.020000 0
0.460000 0.020000 0
0.480000 0.020000 0
0.500000 0.020000 0
0.520000 0.020000 0
0.540000 0.020000 0
0.560000 0.020000 0
0.580000 0.020000 0
0.600000 0.020000 0
0.620000 0.020000 0
0.640000 0.020000 0
0.660000 0.020000 0
0.680000 0.020000 0
0.700000 0.020000 0
0.720000 0.020000 0
0.740000 0.020000 0
0.760000 0.020000 0
0.780000 0.020000 0
0.800000 0.020000 0
0.820000 0.020000 0
0.840000 0.020000 0
0.860000 0.020000 0
0.880000 0.020000 0
0.900000 0.020000 0
0.920000 0.020000 0
0.940000 0.020000 0
0.960000 0.020000 0
0.980000 0.020000 0
1.000000 0.020000 0
0.000000 0.040000 0
0.020000 0.040000 0
0.040000 0.040000 0
0.060000 0.040000 0
0.080000 0.040000 0
0.100000 0.040000 0
0.120000 0.040000 0
0.140000 0.040000 0
0.160000 0.040000 0
0.180000 0.040000 0
0.200000 0.040000 0
0.220000 0.040000 0
0.240000 0.040000 0
0.260000 0.040000 0
0.280000 0.040000 0
0.300000 0.040000 0
0.320000 0.040000 0
0.340000 0.040000 0
0.360000 0.040000 0
0.380000 0.040000 0
0.400000 0.040000 0
0.420000 0.040000 0
0.440000 0.040000 0
0.460000 0.040000 0
0.480000 0.040000 0
0.500000 0.040000 0
0.520000 0.040000 0
0.540000 0.040000 0
0.560000 0.040000 0
0.580000 0.040000 0
0.600000 0.040000 0
0.620000 0.040000 0
0.640000 0.040000 0
0.660000 0.040000 0
0.680000 0.040000 0
0.700000 0.040000 0
0.720000 0.040000 0
0.740000 0.040000 0
0.760000 0.040000 0
0.780000 0.040000 0
0.800000 0.040000 0
0.820000 0.040000 0
0.840000 0.040000 0
0.860000 0.040000 0
0.880000 0.040000 0
0.900000 0.040000 0
0.920000 0.040000 0
0.940000 0.040000 0
0.960000 0.040000 0
0.980000 0.040000 0
1.000000 0.040000 0
0.000000 0.060000 0
0.020000 0.060000 0
0.040000 0.060000 0
0.060000 0.060000 0
0.080000 0.060000 0
0.100000 0.060000 0
0.120000 0.060000 0
0.140000 0.060000 0
0.160000 0.060000 0
0.180000 0.060000 0
0.200000 0.060000 0
0.220000 0.060000 0
0.240000 0.060000 0
0.260000 0.060000 0
0.280000 0.060000 0
0.300000 0.060000 0
0.320000 0.060000 0
0.340000 0.060000 0
0.360000 0.060000 0
0.380000 0.060000 0
0.400000 0.060000 0
0.420000 0.060000 0
0.440000 0.060000 0
0.460000 0.060000 0
0.480000 0.060000 0
0.500000 0.060000 0
0.520000 0.060000 0
0.540000 0.060000 0
0.560000 0.060000 0
0.580000 0.060000 0
0.600000 0.060000 0
0.620000 0.060000 0
0.640000 0.060000 0
0.660000 0.060000 0
0.680000 0.060000 0
0.700000 0.060000 0
0.720000 0.060000 0
0.740000 0.060000 0
0.760000 0.060000 0
0.780000 0.060000 0
0.800000 0.060000 0
0.820000 0.060000 0
0.840000 0.060000 0
0.860000 0.060000 0
0.880000 0.060000 0
0.900000 0.060000 0
0.920000 0.060000 0
0.940000 0.060000 0
0.960000 0.060000 0
0.980000 0.060000 0
1.000000 0.060000 0
0.000000 0.080000 0
0.020000 0.080000 0
0.040000 0.080000 0
0.060000 0.080000 0
0.080000 0.080000 0
0.100000 0.080000 0
0.120000 0.080000 0
0.140000 0.080000 0
0.160000 0.080000 0
0.180000 0.080000 0
0.200000 0.080000 0
0.220000 0.080000 0
0.240000 0.080000 0
0.260000 0.080000 0
0.280000 0.080000 0
0.300000 0.080000 0
0.320000 0.080000 0
0.340000 0.080000 0
0.360000 0.080000 0
0.380000 0.080000 0
0.400000 0.080000 0
0.420000 0.080000 0
0.440000 0.080000 0
0.460000 0.080000 0
0.480000 0.080000 0
0.500000 0.080000 0
0.520000 0.080000 0
0.540000 0.080000 0
0.560000 0.080000 0
0.580000 0.080000 0
0.600000 0.080000 0
0.620000 0.080000 0
0.640000 0.080000 0
0.660000 0.080000 0
0.680000 0.080000 0
0.700000 0.080000 0
0.720000 0.080000 0
0.740000 0.080000 0
0.760000 0.080000 0
0.780000 0.080000 0
0.800000 0.080000 0
0.820000 0.080000 0
0.840000 0.080000 0
0.860000 0.080000 0
0.880000 0.080000 0
0.900000 0.080000 0
0.920000 0.080000 0
0.940000 0.080000 0
0.960000 0.080000 0
0.980000 0.080000 0
1.000000 0.080000 0
0.000000 0.100000 0
0.020000 0.100000 0
0.040000 0.100000 0
0.060000 0.100000 0
0.080000 0.100000 0
0.100000 0.100000 0
0.120000 0.100000 0
0.140000 0.100000 0
0.160000 0.100000 0
0.180000 0.100000 0
0.200000 0.100000 0
0.220000 0.100000 0
0.240000 0.100000 0
0.260000 0.100000 0
0.280000 0.100000 0
0.300000 0.100000 0
0.320000 0.100000 0
0.340000 0.100000 0
0.360000 0.100000 0
0.380000 0.100000 0
0.400000 0.100000 0
0.420000 0.100000 0
0.440000 0.100000 0
0.460000 0.100000 0
0.480000 0.100000 0
0.500000 0.100000 0
0.520000 0.100000 0
0.540000 0.100000 0
0.560000 0.100000 0
0.580000 0.100000 0
0.600000 0.100000 0
0.620000 0.100000 0
0.640000 0.100000 0
0.660000 0.100000 0
0.680000 0.100000 0
0.700000 0.100000 0
0.720000 0.100000 0
0.740000 0.100000 0
0.760000 0.100000 0
0.780000 0.100000 0
0.800000 0.100000 0
0.820000 0.100000 0
0.840000 0.100000 0
0.860000 0.100000 0
0.880000 0.100000 0
0.900000 0.100000 0
0.920000 0.100000 0
0.940000 0.100000 0
0.960000 0.100000 0
0.980000 0.100000 0
1.000000 0.100000 0
0.000000 0.120000 0
0.020000 0.120000 0
0.040000 0.120000 0
0.060000 0.120000 0
0.080000 0.120000 0
0.100000 0.120000 0
0.120000 0.120000 0
0.140000 0.120000 0
0.160000 0.120000 0
0.180000 0.120000 0
0.200000 0.120000 0
0.220000 0.120000 0
0.240000 0.120000 0
0.260000 0.120000 0
0.280000 0.120000 0
0.300000 0.120000 0
0.320000 0.120000 0
0.340000 0.120000 0
0.360000 0.120000 0
0.380000 0.120000 0
0.400000 0.120000 0
0.420000 0.120000 0
0.440000 0.120000 0
0.460000 0.120000 0
0.480000 0.120000 0
0.500000 0.120000 0
0.520000 0.120000 0
0.540000 0.120000 0
0.560000 0.120000 0
0.580000 0.120000 0
0.600000 0.120000 0
0.620000 0.120000 0
0.640000 0.120000 0
0.660000 0.120000 0
0.680000 0.120000 0
0.700000 0.120000 0
0.720000 0.120000 0
0.740000 0.120000 0
0.760000 0.120000 0
0.780000 0.120000 0
0.800000 0.120000 0
0.820000 0.120000 0
0.840000 0.120000 0
0.860000 0.120000 0
0.880000 0.120000 0
0.900000 0.120000 0
0.920000 0.120000 0
0.940000 0.120000 0
0.960000 0.120000 0
0.980000 0.120000 0
1.000000 0.120000 0
0.000000 0.140000 0
0.020000 0.140000 0
0.040000 0.140000 0
0.060000 0.140000 0
0.080000 0.140000 0
0.100000 0.140000 0
0.120000 0.140000 0
0.140000 0.140000 0
0.160000 0.140000 0
0.180000 0.140000 0
0.200000 0.140000 0
0.220000 0.140000 0
0.240000 0.140000 0
0.260000 0.140000 0
0.280000 0.140000 0
0.300000 0.140000 0
0.320000 0.140000 0
0.340000 0.140000 0
0.360000 0.140000 0
0.380000 0.140000 0
0.400000 0.140000 0
0.420000 0.140000 0
0.440000 0.140000 0
0.460000 0.140000 0
0.480000 0.140000 0
0.500000 0.140000 0
0.520000 0.140000 0
0.540000 0.140000 0
0.560000 0.140000 0
0.580000 0.140000 0
0.600000 0.140000 0
0.620000 0.140000 0
0.640000 0.140000 0
0.660000 0.140000 0
0.680000 0.140000 0
0.700000 0.140000 0
0.720000 0.140000 0
0.740000 0.140000 0
0.760000 0.140000 0
0.780000 0.140000 0
0.800000 0.140000 0
0.820000 0.140000 0
0.840000 0.140000 0
0.860000 0.140000 0
0.880000 0.140000 0
0.900000 0.140000 0
0.920000 0.140000 0
0.940000 0.140000 0
0.960000 0.140000 0
0.980000 0.140000 0
1.000000 0.140000 0
0.000000 0.160000 0
0.020000 0.160000 0
0.040000 0.160000 0
0.060000 0.160000 0
0.080000 0.160000 0
0.100000 0.160000 0
0.120000 0.160000 0
0.140000 0.160000 0
0.160000 0.160000 0
0.180000 0.160000 0
0.200000 0.160000 0
0.220000 0.160000 0
0.240000 0.160000 0
0.260000 0.160000 0
0.280000 0.160000 0
0.300000 0.160000 0
0.320000 0.160000 0
0.340000 0.160000 0
0.360000 0.160000 0
0.380000 0.160000 0
0.400000 0.160000 0
0.420000 0.160000 0
0.440000 0.160000 0
0.460000 0.160000 0
0.480000 0.160000 0
0.500000 0.160000 0
0.520000 0.160000 0
0.540000 0.160000 0
0.560000 0.160000 0
0.580000 0.160000 0
0.600000 0.160000 0
0.620000 0.160000 0
0.640000 0.160000 0
0.660000 0.160000 0
0.680000 0.160000 0
0.700000 0.160000 0
0.720000 0.160000 0
0.740000 0.160000 0
0.760000 0.160000 0
0.780000 0.160000 0
0.800000 0.160000 0
0.820000 0.160000 0
0.840000 0.160000 0
0.860000 0.160000 0
0.880000 0.160000 0
0.900000 0.160000 0
0.920000 0.160000 0
0.940000 0.160000 0
0.960000 0.160000 0
0.980000 0.160000 0
1.000000 0.160000 0
0.000000 0.180000 0
0.020000 0.180000 0
0.040000 0.180000 0
0.060000 0.180000 0
0.080000 0.180000 0
0.100000 0.180000 0
0.120000 0.180000 0
0.140000 0.180000 0
0.160000 0.180000 0
0.180000 0.180000 0
0.200000 0.180000 0
0.220000 0.180000 0
0.240000 0.180000 0
0.260000 0.180000 0
0.280000 0.180000 0
0.300000 0.180000 0
0.320000 0.180000 0
0.340000 0.180000 0
0.360000 0.180000 0
0.380000 0.180000 0
0.400000 0.180000 0
0.420000 0.180000 0
0.440000 0.180000 0
0.460000 0.180000 0
0.480000 0.180000 0
0.500000 0.180000 0
0.520000 0.180000 0
0.540000 0.180000 0
0.560000 0.180000 0
0.580000 0.180000 0
0.600000 0.180000 0
0.620000 0.180000 0
[...]
POINT_DATA 2601 

VECTORS velocity float
0.000000 0.000000 0
0.000000 0.000000 0
0.000000 0.000000 0
0.000000 0.000000 0
0.000000 0.000000 0
0.000000 0.000000 0
0.000000 0.000000 0
0.000000 0.000000 0
0.000000 0.000000 0
0.000000 0.000000 0
0.000000 0.000000 0
0.000000 0.000000 0
0.000000 0.000000 0
0.000000 0.000000 0
0.000000 0.000000 0
0.000000 0.000000 0
0.000000 0.000000 0
0.000000 0.000000 0
0.000000 0.000000 0
0.000000 0.000000 0
0.000000 0.000000 0
0.000000 0.000000 0
0.000000 0.000000 0
0.000000 0.000000 0
0.000000 0.000000 0
0.000000 0.000000 0
0.000000 0.000000 0
0.000000 0.000000 0
0.000000 0.000000 0
0.000000 0.000000 0
0.000000 0.000000 0
0.000000 0.000000 0
0.000000 0.000000 0
0.000000 0.000000 0
0.000000 0.000000 0
0.000000 0.000000 0
0.000000 0.000000 0
0.000000 0.000000 0
0.000000 0.000000 0
0.000000 0.000000 0
0.000000 0.000000 0
0.000000 0.000000 0
0.000000 0.000000 0
0.000000 0.000000 0
0.000000 0.000000 0
0.000000 0.000000 0
0.000000 0.000000 0
0.000000 0.000000 0
0.000000 0.000000 0
0.000000 0.000000 0
0.000000 0.000000 0
0.000000 0.000000 0
0.000056 0.000000 0
0.000113 0.000000 0
0.000169 0.000000 0
0.000225 0.000000 0
0.000281 0.000000 0
0.000337 0.000000 0
0.000393 0.000000 0
0.000449 0.000000 0
0.000504 0.000000 0
0.000559 0.000000 0
0.000614 0.000000 0
0.000668 0.000000 0
0.000722 0.000000 0
0.000776 0.000000 0
0.000829 0.000000 0
0.000881 0.000000 0
0.000932 0.000000 0
0.000983 0.000000 0
0.001033 0.000000 0
0.001082 0.000000 0
0.001129 0.000000 0
0.001175 0.000000 0
0.001220 0.000000 0
0.001262 0.000000 0
0.001302 0.000000 0
0.001340 0.000000 0
0.001374 0.000000 0
0.001405 0.000000 0
0.001432 0.000000 0
0.001455 0.000000 0
0.001473 0.000000 0
0.001484 0.000000 0
0.001489 0.000000 0
0.001487 0.000000 0
0.001476 0.000000 0
0.001457 0.000000 0
0.001427 0.000000 0
0.001387 0.000000 0
0.001334 0.000000 0
0.001270 0.000000 0
0.001193 0.000000 0
0.001103 0.000000 0
0.001000 0.000000 0
0.000885 0.000000 0
0.000758 0.000000 0
0.000621 0.000000 0
0.000474 0.000000 0
0.000320 0.000000 0
0.000161 0.000000 0
0.000000 0.000000 0
0.000000 0.000000 0
0.000113 0.000000 0
0.000226 0.000000 0
0.000338 0.000000 0
0.000451 0.000000 0
0.000563 0.000000 0
0.000675 0.000000 0
0.000786 0.000000 0
0.000898 0.000000 0
0.001008 0.000000 0
0.001118 0.000000 0
0.001228 0.000000 0
0.001337 0.000000 0
0.001445 0.000000 0
0.001552 0.000000 0
0.001658 0.000000 0
0.001763 0.000000 0
0.001866 0.000000 0
0.001968 0.000000 0
0.002067 0.000000 0
0.002165 0.000000 0
0.002260 0.000000 0
0.002352 0.000000 0
0.002441 0.000000 0
0.002526 0.000000 0
0.002607 0.000000 0
0.002682 0.000000 0
0.002752 0.000000 0
0.002815 0.000000 0
0.002869 0.000000 0
0.002915 0.000000 0
0.002951 0.000000 0
0.002975 0.000000 0
0.002986 0.000000 0
0.002982 0.000000 0
0.002962 0.000000 0
0.002923 0.000000 0
0.002865 0.000000 0
0.002784 0.000000 0
0.002681 0.000000 0
0.002553 0.000000 0
0.002399 0.000000 0
0.002219 0.000000 0
0.002013 0.000000 0
0.001781 0.000000 0
0.001526 0.000000 0
0.001250 0.000000 0
0.000955 0.000000 0
0.000645 0.000000 0
0.000325 0.000000 0
0.000000 0.000000 0
0.000000 0.000000 0
0.000169 0.000000 0
0.000339 0.000000 0
0.000508 0.000000 0
0.000676 0.000000 0
0.000845 0.000000 0
0.001013 0.000000 0
0.001180 0.000000 0
0.001347 0.000000 0
0.001514 0.000000 0
0.001679 0.000000 0
0.001844 0.000000 0
0.002007 0.000000 0
0.002169 0.000000 0
0.002330 0.000000 0
0.002489 0.000000 0
0.002647 0.000000 0
0.002802 0.000000 0
0.002955 0.000000 0
0.003105 0.000000 0
0.003252 0.000000 0
0.003395 0.000000 0
0.003534 0.000000 0
0.003668 0.000000 0
0.003796 0.000000 0
0.003918 0.000000 0
0.004032 0.000000 0
0.004137 0.000000 0
0.004233 0.000000 0
0.004316 0.000000 0
0.004387 0.000000 0
0.004442 0.000000 0
0.004480 0.000000 0
0.004498 0.000000 0
0.004494 0.000000 0
0.004465 0.000000 0
0.004409 0.000000 0
0.004323 0.000000 0
0.004205 0.000000 0
0.004050 0.000000 0
0.003859 0.000000 0
0.003629 0.000000 0
0.003359 0.000000 0
0.003048 0.000000 0
0.002700 0.000000 0
0.002314 0.000000 0
0.001896 0.000000 0
0.001449 0.000000 0
0.000979 0.000000 0
0.000494 0.000000 0
0.000000 0.000000 0
0.000000 0.000000 0
0.000226 0.000000 0
0.000452 0.000000 0
0.000678 0.000000 0
0.000903 0.000000 0
0.001128 0.000000 0
0.001352 0.000000 0
0.001576 0.000000 0
0.001799 0.000000 0
0.002021 0.000000 0
0.002242 0.000000 0
0.002462 0.000000 0
0.002680 0.000000 0
0.002897 0.000000 0
0.003111 0.000000 0
0.003324 0.000000 0
0.003535 0.000000 0
0.003742 0.000000 0
0.003947 0.000000 0
0.004147 0.000000 0
0.004344 0.000000 0
0.004536 0.000000 0
0.004722 0.000000 0
0.004902 0.000000 0
0.005074 0.000000 0
0.005238 0.000000 0
0.005392 0.000000 0
0.005534 0.000000 0
0.005664 0.000000 0
0.005778 0.000000 0
0.005874 0.000000 0
0.005950 0.000000 0
0.006004 0.000000 0
0.006032 0.000000 0
0.006030 0.000000 0
0.005996 0.000000 0
0.005924 0.000000 0
0.005813 0.000000 0
0.005658 0.000000 0
0.005455 0.000000 0
0.005201 0.000000 0
0.004895 0.000000 0
0.004534 0.000000 0
0.004119 0.000000 0
0.003650 0.000000 0
0.003131 0.000000 0
0.002567 0.000000 0
0.001962 0.000000 0
0.001327 0.000000 0
0.000669 0.000000 0
0.000000 0.000000 0
0.000000 0.000000 0
0.000283 0.000000 0
0.000566 0.000000 0
0.000849 0.000000 0
0.001131 0.000000 0
0.001412 0.000000 0
0.001693 0.000000 0
0.001974 0.000000 0
0.002253 0.000000 0
0.002531 0.000000 0
0.002808 0.000000 0
0.003083 0.000000 0
0.003357 0.000000 0
0.003628 0.000000 0
0.003897 0.000000 0
0.004164 0.000000 0
0.004428 0.000000 0
0.004689 0.000000 0
0.004945 0.000000 0
0.005198 0.000000 0
0.005445 0.000000 0
0.005686 0.000000 0
0.005920 0.000000 0
0.006147 0.000000 0
0.006365 0.000000 0
0.006572 0.000000 0
0.006767 0.000000 0
0.006948 0.000000 0
0.007113 0.000000 0
0.007259 0.000000 0
0.007384 0.000000 0
0.007484 0.000000 0
0.007556 0.000000 0
0.007595 0.000000 0
0.007599 0.000000 0
0.007561 0.000000 0
0.007478 0.000000 0
0.007344 0.000000 0
0.007154 0.000000 0
0.006904 0.000000 0
0.006590 0.000000 0
0.006209 0.000000 0
0.005757 0.000000 0
0.005235 0.000000 0
0.004644 0.000000 0
0.003988 0.000000 0
0.003271 0.000000 0
0.002502 0.000000 0
0.001693 0.000000 0
0.000854 0.000000 0
0.000000 0.000000 0
0.000000 0.000000 0
0.000341 0.000000 0
0.000681 0.000000 0
0.001021 0.000000 0
0.001360 0.000000 0
0.001699 0.000000 0
0.002037 0.000000 0
0.002374 0.000000 0
0.002710 0.000000 0
0.003045 0.000000 0
0.003378 0.000000 0
0.003709 0.000000 0
0.004039 0.000000 0
0.004366 0.000000 0
0.004690 0.000000 0
0.005012 0.000000 0
0.005330 0.000000 0
0.005644 0.000000 0
0.005953 0.000000 0
0.006258 0.000000 0
0.006557 0.000000 0
0.006848 0.000000 0
0.007132 0.000000 0
0.007407 0.000000 0
0.007671 0.000000 0
0.007923 0.000000 0
0.008161 0.000000 0
0.008382 0.000000 0
0.008585 0.000000 0
0.008766 0.000000 0
0.008921 0.000000 0
0.009048 0.000000 0
0.009141 0.000000 0
0.009196 0.000000 0
0.009208 0.000000 0
0.009171 0.000000 0
0.009079 0.000000 0
0.008925 0.000000 0
0.008705 0.000000 0
0.008411 0.000000 0
0.008038 0.000000 0
0.007582 0.000000 0
0.007040 0.000000 0
0.006409 0.000000 0
0.005692 0.000000 0
0.004893 0.000000 0
0.004017 0.000000 0
0.003076 0.000000 0
0.002082 0.000000 0
0.001050 0.000000 0
0.000000 0.000000 0
0.000000 0.000000 0
0.000399 0.000000 0
0.000797 0.000000 0
0.001195 0.000000 0
0.001592 0.000000 0
0.001989 0.000000 0
0.002385 0.000000 0
0.002780 0.000000 0
0.003173 0.000000 0
0.003565 0.000000 0
0.003955 0.000000 0
0.004343 0.000000 0
0.004729 0.000000 0
0.005112 0.000000 0
0.005492 0.000000 0
0.005869 0.000000 0
0.006242 0.000000 0
0.006611 0.000000 0
0.006974 0.000000 0
0.007332 0.000000 0
0.007683 0.000000 0
0.008026 0.000000 0
0.008361 0.000000 0
0.008685 0.000000 0
0.008998 0.000000 0
0.009296 0.000000 0
0.009579 0.000000 0
0.009843 0.000000 0
0.010086 0.000000 0
0.010304 0.000000 0
0.010493 0.000000 0
0.010649 0.000000 0
0.010767 0.000000 0
0.010842 0.000000 0
0.010866 0.000000 0
0.010833 0.000000 0
0.010736 0.000000 0
0.010568 0.000000 0
0.010320 0.000000 0
0.009985 0.000000 0
0.009556 0.000000 0
0.009027 0.000000 0
0.008393 0.000000 0
0.007652 0.000000 0
0.006806 0.000000 0
0.005857 0.000000 0
0.004814 0.000000 0
0.003689 0.000000 0
0.002499 0.000000 0
0.001261 0.000000 0
0.000000 0.000000 0
0.000000 0.000000 0
0.000458 0.000000 0
0.000915 0.000000 0
0.001372 0.000000 0
0.001828 0.000000 0
0.002283 0.000000 0
0.002737 0.000000 0
0.003190 0.000000 0
0.003642 0.000000 0
0.004092 0.000000 0
0.004540 0.000000 0
0.004985 0.000000 0
0.005428 0.000000 0
0.005869 0.000000 0
0.006306 0.000000 0
0.006739 0.000000 0
0.007168 0.000000 0
0.007592 0.000000 0
0.008011 0.000000 0
0.008423 0.000000 0
0.008828 0.000000 0
0.009224 0.000000 0
0.009611 0.000000 0
0.009986 0.000000 0
0.010349 0.000000 0
0.010696 0.000000 0
0.011026 0.000000 0
0.011335 0.000000 0
0.011621 0.000000 0
0.011879 0.000000 0
0.012106 0.000000 0
0.012295 0.000000 0
0.012442 0.000000 0
0.012540 0.000000 0
0.012581 0.000000 0
0.012557 0.000000 0
0.012461 0.000000 0
0.012282 0.000000 0
0.012011 0.000000 0
0.011639 0.000000 0
0.011156 0.000000 0
0.010556 0.000000 0
0.009830 0.000000 0
0.008977 0.000000 0
0.007996 0.000000 0
0.006891 0.000000 0
0.005672 0.000000 0
0.004351 0.000000 0
0.002949 0.000000 0
0.001490 0.000000 0
0.000000 0.000000 0
0.000000 0.000000 0
0.000517 0.000000 0
0.001035 0.000000 0
0.001551 0.000000 0
0.002067 0.000000 0
0.002582 0.000000 0
0.003096 0.000000 0
0.003608 0.000000 0
0.004119 0.000000 0
0.004628 0.000000 0
0.005135 0.000000 0
0.005639 0.000000 0
0.006141 0.000000 0
0.006639 0.000000 0
0.007134 0.000000 0
0.007625 0.000000 0
0.008111 0.000000 0
0.008592 0.000000 0
0.009067 0.000000 0
0.009535 0.000000 0
0.009995 0.000000 0
0.010446 0.000000 0
0.010887 0.000000 0
0.011315 0.000000 0
0.011730 0.000000 0
0.012128 0.000000 0
0.012508 0.000000 0
0.012865 0.000000 0
0.013197 0.000000 0
0.013499 0.000000 0
0.013766 0.000000 0
0.013992 0.000000 0
0.014172 0.000000 0
0.014298 0.000000 0
0.014361 0.000000 0
0.014352 0.000000 0
0.014261 0.000000 0
0.014077 0.000000 0
0.013788 0.000000 0
0.013383 0.000000 0
0.012851 0.000000 0
0.012181 0.000000 0
0.011365 0.000000 0
0.010398 0.000000 0
0.009277 0.000000 0
0.008008 0.000000 0
0.006600 0.000000 0
0.005070 0.000000 0
0.003439 0.000000 0
0.001738 0.000000 0
0.000000 0.000000 0
0.000000 0.000000 0
0.000579 0.000000 0
0.001157 0.000000 0
0.001735 0.000000 0
0.002312 0.000000 0
0.002887 0.000000 0
0.003462 0.000000 0
0.004035 0.000000 0
0.004606 0.000000 0
0.005176 0.000000 0
0.005743 0.000000 0
0.006307 0.000000 0
0.006868 0.000000 0
0.007426 0.000000 0
0.007980 0.000000 0
0.008530 0.000000 0
0.009075 0.000000 0
0.009614 0.000000 0
0.010147 0.000000 0
0.010673 0.000000 0
0.011190 0.000000 0
0.011697 0.000000 0
0.012194 0.000000 0
0.012678 0.000000 0
0.013147 0.000000 0
0.013598 0.000000 0
0.014030 0.000000 0
0.014438 0.000000 0
0.014819 0.000000 0
0.015168 0.000000 0
0.015480 0.000000 0
0.015748 0.000000 0
0.015966 0.000000 0
0.016125 0.000000 0
0.016215 0.000000 0
0.016226 0.000000 0
0.016147 0.000000 0
0.015964 0.000000 0
0.015663 0.000000 0
0.015231 0.000000 0
0.014653 0.000000 0
0.013917 0.000000 0
0.013011 0.000000 0
0.011927 0.000000 0
0.010663 0.000000 0
0.009221 0.000000 0
0.007612 0.000000 0
0.005855 0.000000 0
0.003976 0.000000 0
0.002011 0.000000 0
0.000000 0.000000 0
0.000000 0.000000 0
0.000641 0.000000 0
0.001282 0.000000 0
0.001923 0.000000 0
0.002562 0.000000 0
0.003200 0.000000 0
0.003837 0.000000 0
0.004473 0.000000 0
0.005106 0.000000 0
0.005737 0.000000 0
0.006366 0.000000 0
0.006992 0.000000 0
0.007614 0.000000 0
0.008233 0.000000 0
0.008848 0.000000 0
0.009459 0.000000 0
0.010064 0.000000 0
0.010663 0.000000 0
0.011256 0.000000 0
0.011841 0.000000 0
0.012417 0.000000 0
0.012983 0.000000 0
0.013538 0.000000 0
0.014079 0.000000 0
0.014605 0.000000 0
0.015112 0.000000 0
0.015599 0.000000 0
0.016061 0.000000 0
0.016495 0.000000 0
0.016895 0.000000 0
0.017256 0.000000 0
0.017570 0.000000 0
0.017831 0.000000 0
0.018028 0.000000 0
0.018152 0.000000 0
0.018190 0.000000 0
0.018129 0.000000 0
0.017953 0.000000 0
0.017648 0.000000 0
0.017194 0.000000 0
0.016577 0.000000 0
0.015778 0.000000 0
0.014783 0.000000 0
0.013582 0.000000 0
0.012169 0.000000 0
0.010544 0.000000 0
0.008721 0.000000 0
0.006718 0.000000 0
0.004568 0.000000 0
0.002312 0.000000 0
0.000000 0.000000 0
0.000000 0.000000 0
0.000706 0.000000 0
0.001412 0.000000 0
0.002117 0.000000 0
0.002820 0.000000 0
0.003523 0.000000 0
0.004224 0.000000 0
0.004923 0.000000 0
0.005621 0.000000 0
0.006316 0.000000 0
0.007008 0.000000 0
0.007697 0.000000 0
0.008383 0.000000 0
0.009065 0.000000 0
0.009743 0.000000 0
0.010416 0.000000 0
0.011083 0.000000 0
0.011744 0.000000 0
0.012399 0.000000 0
0.013045 0.000000 0
0.013683 0.000000 0
0.014309 0.000000 0
0.014925 0.000000 0
0.015526 0.000000 0
0.016111 0.000000 0
0.016678 0.000000 0
0.017223 0.000000 0
0.017742 0.000000 0
0.018232 0.000000 0
0.018688 0.000000 0
0.019102 0.000000 0
0.019467 0.000000 0
0.019776 0.000000 0
0.020018 0.000000 0
0.020182 0.000000 0
0.020253 0.000000 0
0.020218 0.000000 0
0.020057 0.000000 0
0.019754 0.000000 0
0.019287 0.000000 0
0.018635 0.000000 0
0.017779 0.000000 0
0.016698 0.000000 0
0.015379 0.000000 0
0.013811 0.000000 0
0.011994 0.000000 0
0.009940 0.000000 0
0.007670 0.000000 0
0.005222 0.000000 0
0.002646 0.000000 0
0.000000 0.000000 0
0.000000 0.000000 0
0.000773 0.000000 0
0.001545 0.000000 0
0.002317 0.000000 0
0.003087 0.000000 0
0.003857 0.000000 0
0.004624 0.000000 0
0.005390 0.000000 0
0.006153 0.000000 0
0.006914 0.000000 0
0.007672 0.000000 0
0.008427 0.000000 0
0.009178 0.000000 0
0.009925 0.000000 0
0.010668 0.000000 0
0.011406 0.000000 0
0.012138 0.000000 0
0.012863 0.000000 0
0.013582 0.000000 0
0.014292 0.000000 0
0.014993 0.000000 0
0.015683 0.000000 0
0.016361 0.000000 0
0.017025 0.000000 0
0.017673 0.000000 0
0.018302 0.000000 0
0.018908 0.000000 0
0.019489 0.000000 0
0.020039 0.000000 0
0.020554 0.000000 0
0.021026 0.000000 0
0.021448 0.000000 0
0.021811 0.000000 0
0.022104 0.000000 0
0.022314 0.000000 0
0.022426 0.000000 0
0.022424 0.000000 0
0.022288 0.000000 0
0.021995 0.000000 0
0.021523 0.000000 0
0.020845 0.000000 0
0.019937 0.000000 0
0.018774 0.000000 0
0.017336 0.000000 0
0.015609 0.000000 0
0.013590 0.000000 0
0.011287 0.000000 0
0.008727 0.000000 0
0.005950 0.000000 0
0.003018 0.000000 0
0.000000 0.000000 0
0.000000 0.000000 0
0.000843 0.000000 0
0.001684 0.000000 0
0.002525 0.000000 0
0.003365 0.000000 0
0.004203 0.000000 0
0.005040 0.000000 0
0.005874 0.000000 0
0.006707 0.000000 0
0.007536 0.000000 0
0.008362 0.000000 0
0.009185 0.000000 0
0.010005 0.000000 0
0.010820 0.000000 0
0.011630 0.000000 0
0.012435 0.000000 0
0.013234 0.000000 0
0.014027 0.000000 0
0.014812 0.000000 0
0.015588 0.000000 0
0.016356 0.000000 0
0.017112 0.000000 0
0.017856 0.000000 0
0.018586 0.000000 0
0.019299 0.000000 0
0.019994 0.000000 0
0.020665 0.000000 0
0.021311 0.000000 0
0.021925 0.000000 0
0.022503 0.000000 0
0.023038 0.000000 0
0.023522 0.000000 0
0.023945 0.000000 0
0.024295 0.000000 0
0.024559 0.000000 0
0.024720 0.000000 0
0.024760 0.000000 0
0.024657 0.000000 0
0.024385 0.000000 0
0.023916 0.000000 0
0.023221 0.000000 0
0.022269 0.000000 0
0.021028 0.000000 0
0.019473 0.000000 0
0.017583 0.000000 0
0.015350 0.000000 0
0.012781 0.000000 0
0.009903 0.000000 0
0.006764 0.000000 0
0.003434 0.000000 0
0.000000 0.000000 0
0.000000 0.000000 0
0.000915 0.000000 0
0.001830 0.000000 0
0.002743 0.000000 0
0.003655 0.000000 0
0.004566 0.000000 0
0.005474 0.000000 0
0.006381 0.000000 0
0.007285 0.000000 0
0.008186 0.000000 0
0.009083 0.000000 0
0.009978 0.000000 0
0.010868 0.000000 0
0.011753 0.000000 0
0.012634 0.000000 0
0.013509 0.000000 0
0.014379 0.000000 0
0.015241 0.000000 0
0.016096 0.000000 0
0.016942 0.000000 0
0.017779 0.000000 0
0.018605 0.000000 0
0.019418 0.000000 0
0.020217 0.000000 0
0.020999 0.000000 0
0.021762 0.000000 0
0.022503 0.000000 0
0.023217 0.000000 0
0.023900 0.000000 0
0.024547 0.000000 0
0.025150 0.000000 0
0.025700 0.000000 0
0.026189 0.000000 0
0.026604 0.000000 0
0.026929 0.000000 0
0.027148 0.000000 0
0.027239 0.000000 0
0.027178 0.000000 0
0.026937 0.000000 0
0.026483 0.000000 0
0.025781 0.000000 0
0.024793 0.000000 0
0.023482 0.000000 0
0.021813 0.000000 0
0.019757 0.000000 0
0.017299 0.000000 0
0.014444 0.000000 0
0.011218 0.000000 0
0.007677 0.000000 0
0.003902 0.000000 0
0.000000 0.000000 0
0.000000 0.000000 0
0.000992 0.000000 0
0.001982 0.000000 0
0.002972 0.000000 0
0.003960 0.000000 0
0.004946 0.000000 0
0.005931 0.000000 0
0.006913 0.000000 0
0.007892 0.000000 0
0.008868 0.000000 0
0.009840 0.000000 0
0.010809 0.000000 0
0.011774 0.000000 0
0.012733 0.000000 0
0.013688 0.000000 0
0.014637 0.000000 0
0.015580 0.000000 0
0.016516 0.000000 0
0.017444 0.000000 0
0.018363 0.000000 0
0.019272 0.000000 0
0.020171 0.000000 0
0.021057 0.000000 0
0.021928 0.000000 0
0.022783 0.000000 0
0.023619 0.000000 0
0.024432 0.000000 0
0.025220 0.000000 0
0.025976 0.000000 0
0.026696 0.000000 0
0.027371 0.000000 0
0.027995 0.000000 0
0.028556 0.000000 0
0.029042 0.000000 0
0.029436 0.000000 0
0.029721 0.000000 0
0.029873 0.000000 0
0.029866 0.000000 0
0.029667 0.000000 0
0.029240 0.000000 0
0.028543 0.000000 0
0.027532 0.000000 0
0.026159 0.000000 0
0.024379 0.000000 0
0.022156 0.000000 0
0.019463 0.000000 0
0.016300 0.000000 0
0.012694 0.000000 0
0.008704 0.000000 0
0.004431 0.000000 0
0.000000 0.000000 0
0.000000 0.000000 0
0.001072 0.000000 0
0.002143 0.000000 0
0.003213 0.000000 0
0.004282 0.000000 0
0.005348 0.000000 0
0.006412 0.000000 0
0.007474 0.000000 0
0.008532 0.000000 0
0.009587 0.000000 0
0.010639 0.000000 0
0.011686 0.000000 0
0.012729 0.000000 0
0.013767 0.000000 0
0.014799 0.000000 0
0.015826 0.000000 0
0.016846 0.000000 0
0.017859 0.000000 0
0.018864 0.000000 0
0.019860 0.000000 0
0.020846 0.000000 0
0.021821 0.000000 0
0.022784 0.000000 0
0.023732 0.000000 0
0.024663 0.000000 0
0.025576 0.000000 0
0.026466 0.000000 0
0.027331 0.000000 0
0.028165 0.000000 0
0.028963 0.000000 0
0.029717 0.000000 0
0.030420 0.000000 0
0.031060 0.000000 0
0.031624 0.000000 0
0.032095 0.000000 0
0.032455 0.000000 0
0.032678 0.000000 0
0.032735 0.000000 0
0.032591 0.000000 0
0.032205 0.000000 0
0.031527 0.000000 0
0.030504 0.000000 0
0.029081 0.000000 0
0.027199 0.000000 0
0.024808 0.000000 0
0.021871 0.000000 0
0.018379 0.000000 0
0.014354 0.000000 0
0.009867 0.000000 0
0.005030 0.000000 0
0.000000 0.000000 0
0.000000 0.000000 0
0.001158 0.000000 0
0.002314 0.000000 0
0.003470 0.000000 0
0.004623 0.000000 0
0.005774 0.000000 0
0.006923 0.000000 0
0.008069 0.000000 0
0.009212 0.000000 0
0.010351 0.000000 0
0.011486 0.000000 0
0.012616 0.000000 0
0.013742 0.000000 0
0.014862 0.000000 0
0.015977 0.000000 0
0.017086 0.000000 0
0.018188 0.000000 0
0.019282 0.000000 0
0.020368 0.000000 0
0.021445 0.000000 0
0.022512 0.000000 0
0.023568 0.000000 0
0.024612 0.000000 0
0.025641 0.000000 0
0.026653 0.000000 0
0.027647 0.000000 0
0.028619 0.000000 0
0.029566 0.000000 0
0.030483 0.000000 0
0.031364 0.000000 0
0.032203 0.000000 0
0.032990 0.000000 0
0.033715 0.000000 0
0.034364 0.000000 0
0.034922 0.000000 0
0.035366 0.000000 0
0.035671 0.000000 0
0.035804 0.000000 0
0.035729 0.000000 0
0.035396 0.000000 0
0.034753 0.000000 0
0.033735 0.000000 0
0.032275 0.000000 0
0.030300 0.000000 0
0.027745 0.000000 0
0.024556 0.000000 0
0.020712 0.000000 0
0.016230 0.000000 0
0.011185 0.000000 0
0.005712 0.000000 0
0.000000 0.000000 0
0.000000 0.000000 0
0.001249 0.000000 0
0.002497 0.000000 0
0.003743 0.000000 0
0.004987 0.000000 0
0.006229 0.000000 0
0.007468 0.000000 0
0.008704 0.000000 0
0.009936 0.000000 0
0.011164 0.000000 0
0.012388 0.000000 0
0.013607 0.000000 0
0.014821 0.000000 0
0.016030 0.000000 0
0.017232 0.000000 0
0.018428 0.000000 0
0.019616 0.000000 0
0.020797 0.000000 0
0.021969 0.000000 0
0.023132 0.000000 0
0.024285 0.000000 0
0.025427 0.000000 0
0.026556 0.000000 0
0.027670 0.000000 0
0.028769 0.000000 0
0.029849 0.000000 0
0.030908 0.000000 0
0.031942 0.000000 0