# vtk DataFile Version 2.0
generated by CFD-lab course output (written by Tobias Neckel) 
ASCII

DATASET STRUCTURED_GRID
DIMENSIONS  51 51 1 
POINTS 2601 float

0.000000 0.000000 0
0.020000 0.000000 0
0.040000 0.000000 0
0.060000 0.000000 0
0.080000 0.000000 0
0.100000 0.000000 0
0.120000 0.000000 0
0.140000 0.000000 0
0.160000 0.000000 0
0.180000 0.000000 0
0.200000 0.000000 0
0.220000 0.000000 0
0.240000 0.000000 0
0.260000 0.000000 0
0.280000 0.000000 0
0.300000 0.000000 0
0.320000 0.000000 0
0.340000 0.000000 0
0.360000 0.000000 0
0.380000 0.000000 0
0.400000 0.000000 0
0.420000 0.000000 0
0.440000 0.000000 0
0.460000 0.000000 0
0.480000 0.000000 0
0.500000 0.000000 0
0.520000 0.000000 0
0.540000 0.000000 0
0.560000 0.000000 0
0.580000 0.000000 0
0.600000 0.000000 0
0.620000 0.000000 0
0.640000 0.000000 0
0.660000 0.000000 0
0.680000 0.000000 0
0.700000 0.000000 0
0.720000 0.000000 0
0.740000 0.000000 0
0.760000 0.000000 0
0.780000 0.000000 0
0.800000 0.000000 0
0.820000 0.000000 0
0.840000 0.000000 0
0.860000 0.000000 0
0.880000 0.000000 0
0.900000 0.000000 0
0.920000 0.000000 0
0.940000 0.000000 0
0.960000 0.000000 0
0.980000 0.000000 0
1.000000 0.000000 0
0.000000 0.020000 0
0.020000 0.020000 0
0.040000 0.020000 0
0.060000 0.020000 0
0.080000 0.020000 0
0.100000 0.020000 0
0.120000 0.020000 0
0.140000 0.020000 0
0.160000 0.020000 0
0.180000 0.020000 0
0.200000 0.020000 0
0.220000 0.020000 0
0.240000 0.020000 0
0.260000 0.020000 0
0.280000 0.020000 0
0.300000 0.020000 0
0.320000 0.020000 0
0.340000 0.020000 0
0.360000 0.020000 0
0.380000 0.020000 0
0.400000 0.020000 0
0.420000 0.020000 0
0.440000 0.020000 0
0.460000 0.020000 0
0.480000 0.020000 0
0.500000 0.020000 0
0.520000 0.020000 0
0.540000 0.020000 0
0.560000 0.020000 0
0.580000 0.020000 0
0.600000 0.020000 0
0.620000 0.020000 0
0.640000 0.020000 0
0.660000 0.020000 0
0.680000 0.020000 0
0.700000 0.020000 0
0.720000 0.020000 0
0.740000 0.020000 0
0.760000 0.020000 0
0.780000 0.020000 0
0.800000 0.020000 0
0.820000 0.020000 0
0.840000 0.020000 0
0.860000 0.020000 0
0.880000 0.020000 0
0.900000 0.020000 0
0.920000 0.020000 0
0.940000 0.020000 0
0.960000 0.020000 0
0.980000 0.020000 0
1.000000 0.020000 0
0.000000 0.040000 0
0.020000 0.040000 0
0.040000 0.040000 0
0.060000 0.040000 0
0.080000 0.040000 0
0.100000 0.040000 0
0.120000 0.040000 0
0.140000 0.040000 0
0.160000 0.040000 0
0.180000 0.040000 0
0.200000 0.040000 0
0.220000 0.040000 0
0.240000 0.040000 0
0.260000 0.040000 0
0.280000 0.040000 0
0.300000 0.040000 0
0.320000 0.040000 0
0.340000 0.040000 0
0.360000 0.040000 0
0.380000 0.040000 0
0.400000 0.040000 0
0.420000 0.040000 0
0.440000 0.040000 0
0.460000 0.040000 0
0.480000 0.040000 0
0.500000 0.040000 0
0.520000 0.040000 0
0.540000 0.040000 0
0.560000 0.040000 0
0.580000 0.040000 0
0.600000 0.040000 0
0.620000 0.040000 0
0.640000 0.040000 0
0.660000 0.040000 0
0.680000 0.040000 0
0.700000 0.040000 0
0.720000 0.040000 0
0.740000 0.040000 0
0.760000 0.040000 0
0.780000 0.040000 0
0.800000 0.040000 0
0.820000 0.040000 0
0.840000 0.040000 0
0.860000 0.040000 0
0.880000 0.040000 0
0.900000 0.040000 0
0.920000 0.040000 0
0.940000 0.040000 0
0.960000 0.040000 0
0.980000 0.040000 0
1.000000 0.040000 0
0.000000 0.060000 0
0.020000 0.060000 0
0.040000 0.060000 0
0.060000 0.060000 0
0.080000 0.060000 0
0.100000 0.060000 0
0.120000 0.060000 0
0.140000 0.060000 0
0.160000 0.060000 0
0.180000 0.060000 0
0.200000 0.060000 0
0.220000 0.060000 0
0.240000 0.060000 0
0.260000 0.060000 0
0.280000 0.060000 0
0.300000 0.060000 0
0.320000 0.060000 0
0.340000 0.060000 0
0.360000 0.060000 0
0.380000 0.060000 0
0.400000 0.060000 0
0.420000 0.060000 0
0.440000 0.060000 0
0.460000 0.060000 0
0.480000 0.060000 0
0.500000 0.060000 0
0.520000 0.060000 0
0.540000 0.060000 0
0.560000 0.060000 0
0.580000 0.060000 0
0.600000 0.060000 0
0.620000 0.060000 0
0.640000 0.060000 0
0.660000 0.060000 0
0.680000 0.060000 0
0.700000 0.060000 0
0.720000 0.060000 0
0.740000 0.060000 0
0.760000 0.060000 0
0.780000 0.060000 0
0.800000 0.060000 0
0.820000 0.060000 0
0.840000 0.060000 0
0.860000 0.060000 0
0.880000 0.060000 0
0.900000 0.060000 0
0.920000 0.060000 0
0.940000 0.060000 0
0.960000 0.060000 0
0.980000 0.060000 0
1.000000 0.060000 0
0.000000 0.080000 0
0.020000 0.080000 0
0.040000 0.080000 0
0.060000 0.080000 0
0.080000 0.080000 0
0.100000 0.080000 0
0.120000 0.080000 0
0.140000 0.080000 0
0.160000 0.080000 0
0.180000 0.080000 0
0.200000 0.080000 0
0.220000 0.080000 0
0.240000 0.080000 0
0.260000 0.080000 0
0.280000 0.080000 0
0.300000 0.080000 0
0.320000 0.080000 0
0.340000 0.080000 0
0.360000 0.080000 0
0.380000 0.080000 0
0.400000 0.080000 0
0.420000 0.080000 0
0.440000 0.080000 0
0.460000 0.080000 0
0.480000 0.080000 0
0.500000 0.080000 0
0.520000 0.080000 0
0.540000 0.080000 0
0.560000 0.080000 0
0.580000 0.080000 0
0.600000 0.080000 0
0.620000 0.080000 0
0.640000 0.080000 0
0.660000 0.080000 0
0.680000 0.080000 0
0.700000 0.080000 0
0.720000 0.080000 0
0.740000 0.080000 0
0.760000 0.080000 0
0.780000 0.080000 0
0.800000 0.080000 0
0.820000 0.080000 0
0.840000 0.080000 0
0.860000 0.080000 0
0.880000 0.080000 0
0.900000 0.080000 0
0.920000 0.080000 0
0.940000 0.080000 0
0.960000 0.080000 0
0.980000 0.080000 0
1.000000 0.080000 0
0.000000 0.100000 0
0.020000 0.100000 0
0.040000 0.100000 0
0.060000 0.100000 0
0.080000 0.100000 0
0.100000 0.100000 0
0.120000 0.100000 0
0.140000 0.100000 0
0.160000 0.100000 0
0.180000 0.100000 0
0.200000 0.100000 0
0.220000 0.100000 0
0.240000 0.100000 0
0.260000 0.100000 0
0.280000 0.100000 0
0.300000 0.100000 0
0.320000 0.100000 0
0.340000 0.100000 0
0.360000 0.100000 0
0.380000 0.100000 0
0.400000 0.100000 0
0.420000 0.100000 0
0.440000 0.100000 0
0.460000 0.100000 0
0.480000 0.100000 0
0.500000 0.100000 0
0.520000 0.100000 0
0.540000 0.100000 0
0.560000 0.100000 0
0.580000 0.100000 0
0.600000 0.100000 0
0.620000 0.100000 0
0.640000 0.100000 0
0.660000 0.100000 0
0.680000 0.100000 0
0.700000 0.100000 0
0.720000 0.100000 0
0.740000 0.100000 0
0.760000 0.100000 0
0.780000 0.100000 0
0.800000 0.100000 0
0.820000 0.100000 0
0.840000 0.100000 0
0.860000 0.100000 0
0.880000 0.100000 0
0.900000 0.100000 0
0.920000 0.100000 0
0.940000 0.100000 0
0.960000 0.100000 0
0.980000 0.100000 0
1.000000 0.100000 0
0.000000 0.120000 0
0.020000 0.120000 0
0.040000 0.120000 0
0.060000 0.120000 0
0.080000 0.120000 0
0.100000 0.120000 0
0.120000 0.120000 0
0.140000 0.120000 0
0.160000 0.120000 0
0.180000 0.120000 0
0.200000 0.120000 0
0.220000 0.120000 0
0.240000 0.120000 0
0.260000 0.120000 0
0.280000 0.120000 0
0.300000 0.120000 0
0.320000 0.120000 0
0.340000 0.120000 0
0.360000 0.120000 0
0.380000 0.120000 0
0.400000 0.120000 0
0.420000 0.120000 0
0.440000 0.120000 0
0.460000 0.120000 0
0.480000 0.120000 0
0.500000 0.120000 0
0.520000 0.120000 0
0.540000 0.120000 0
0.560000 0.120000 0
0.580000 0.120000 0
0.600000 0.120000 0
0.620000 0.120000 0
0.640000 0.120000 0
0.660000 0.120000 0
0.680000 0.120000 0
0.700000 0.120000 0
0.720000 0.120000 0
0.740000 0.120000 0
0.760000 0.120000 0
0.780000 0.120000 0
0.800000 0.120000 0
0.820000 0.120000 0
0.840000 0.120000 0
0.860000 0.120000 0
0.880000 0.120000 0
0.900000 0.120000 0
0.920000 0.120000 0
0.940000 0.120000 0
0.960000 0.120000 0
0.980000 0.120000 0
1.000000 0.120000 0
0.000000 0.140000 0
0.020000 0.140000 0
0.040000 0.140000 0
0.060000 0.140000 0
0.080000 0.140000 0
0.100000 0.140000 0
0.120000 0.140000 0
0.140000 0.140000 0
0.160000 0.140000 0
0.180000 0.140000 0
0.200000 0.140000 0
0.220000 0.140000 0
0.240000 0.140000 0
0.260000 0.140000 0
0.280000 0.140000 0
0.300000 0.140000 0
0.320000 0.140000 0
0.340000 0.140000 0
0.360000 0.140000 0
0.380000 0.140000 0
0.400000 0.140000 0
0.420000 0.140000 0
0.440000 0.140000 0
0.460000 0.140000 0
0.480000 0.140000 0
0.500000 0.140000 0
0.520000 0.140000 0
0.540000 0.140000 0
0.560000 0.140000 0
0.580000 0.140000 0
0.600000 0.140000 0
0.620000 0.140000 0
0.640000 0.140000 0
0.660000 0.140000 0
0.680000 0.140000 0
0.700000 0.140000 0
0.720000 0.140000 0
0.740000 0.140000 0
0.760000 0.140000 0
0.780000 0.140000 0
0.800000 0.140000 0
0.820000 0.140000 0
0.840000 0.140000 0
0.860000 0.140000 0
0.880000 0.140000 0
0.900000 0.140000 0
0.920000 0.140000 0
0.940000 0.140000 0
0.960000 0.140000 0
0.980000 0.140000 0
1.000000 0.140000 0
0.000000 0.160000 0
0.020000 0.160000 0
0.040000 0.160000 0
0.060000 0.160000 0
0.080000 0.160000 0
0.100000 0.160000 0
0.120000 0.160000 0
0.140000 0.160000 0
0.160000 0.160000 0
0.180000 0.160000 0
0.200000 0.160000 0
0.220000 0.160000 0
0.240000 0.160000 0
0.260000 0.160000 0
0.280000 0.160000 0
0.300000 0.160000 0
0.320000 0.160000 0
0.340000 0.160000 0
0.360000 0.160000 0
0.380000 0.160000 0
0.400000 0.160000 0
0.420000 0.160000 0
0.440000 0.160000 0
0.460000 0.160000 0
0.480000 0.160000 0
0.500000 0.160000 0
0.520000 0.160000 0
0.540000 0.160000 0
0.560000 0.160000 0
0.580000 0.160000 0
0.600000 0.160000 0
0.620000 0.160000 0
0.640000 0.160000 0
0.660000 0.160000 0
0.680000 0.160000 0
0.700000 0.160000 0
0.720000 0.160000 0
0.740000 0.160000 0
0.760000 0.160000 0
0.780000 0.160000 0
0.800000 0.160000 0
0.820000 0.160000 0
0.840000 0.160000 0
0.860000 0.160000 0
0.880000 0.160000 0
0.900000 0.160000 0
0.920000 0.160000 0
0.940000 0.160000 0
0.960000 0.160000 0
0.980000 0.160000 0
1.000000 0.160000 0
0.000000 0.180000 0
0.020000 0.180000 0
0.040000 0.180000 0
0.060000 0.180000 0
0.080000 0.180000 0
0.100000 0.180000 0
0.120000 0.180000 0
0.140000 0.180000 0
0.160000 0.180000 0
0.180000 0.180000 0
0.200000 0.180000 0
0.220000 0.180000 0
0.240000 0.180000 0
0.260000 0.180000 0
0.280000 0.180000 0
0.300000 0.180000 0
0.320000 0.180000 0
0.340000 0.180000 0
0.360000 0.180000 0
0.380000 0.180000 0
0.400000 0.180000 0
0.420000 0.180000 0
0.440000 0.180000 0
0.460000 0.180000 0
0.480000 0.180000 0
0.500000 0.180000 0
0.520000 0.180000 0
0.540000 0.180000 0
0.560000 0.180000 0
0.580000 0.180000 0
0.600000 0.180000 0
0.620000 0.180000 0
[...]
POINT_DATA 2601 

VECTORS velocity float
0.000000 0.000000 0
-0.000000 0.000000 0
-0.000000 0.000000 0
-0.000000 0.000000 0
-0.000000 0.000000 0
-0.000000 0.000000 0
-0.000000 0.000000 0
-0.000000 0.000000 0
-0.000000 0.000000 0
-0.000000 0.000000 0
-0.000000 0.000000 0
-0.000000 0.000000 0
-0.000000 0.000000 0
-0.000000 0.000000 0
-0.000000 0.000000 0
-0.000000 0.000000 0
-0.000000 0.000000 0
-0.000000 0.000000 0
-0.000000 0.000000 0
-0.000000 0.000000 0
-0.000000 0.000000 0
-0.000000 0.000000 0
-0.000000 0.000000 0
-0.000000 0.000000 0
-0.000000 0.000000 0
0.000000 0.000000 0
0.000000 0.000000 0
0.000000 0.000000 0
0.000000 0.000000 0
0.000000 0.000000 0
0.000000 0.000000 0
0.000000 0.000000 0
0.000000 0.000000 0
0.000000 0.000000 0
0.000000 0.000000 0
0.000000 0.000000 0
0.000000 0.000000 0
0.000000 0.000000 0
0.000000 0.000000 0
0.000000 0.000000 0
0.000000 0.000000 0
0.000000 0.000000 0
0.000000 0.000000 0
0.000000 0.000000 0
0.000000 0.000000 0
0.000000 0.000000 0
0.000000 0.000000 0
0.000000 0.000000 0
0.000000 0.000000 0
0.000000 0.000000 0
0.000000 0.000000 0
0.000000 -0.000000 0
-0.008185 -0.009772 0
-0.016451 -0.019744 0
-0.024628 -0.029879 0
-0.032482 -0.040033 0
-0.039861 -0.050112 0
-0.046742 -0.060141 0
-0.053211 -0.070252 0
-0.059403 -0.080628 0
-0.065456 -0.091448 0
-0.071475 -0.102852 0
-0.077524 -0.114921 0
-0.083624 -0.127669 0
-0.089755 -0.141041 0
-0.095864 -0.154918 0
-0.101869 -0.169118 0
-0.107664 -0.183398 0
-0.113125 -0.197463 0
-0.118114 -0.210971 0
-0.122484 -0.223544 0
-0.126083 -0.234782 0
-0.128766 -0.244284 0
-0.130400 -0.251664 0
-0.130875 -0.256581 0
-0.130110 -0.258756 0
-0.128063 -0.258002 0
-0.124736 -0.254235 0
-0.120179 -0.247493 0
-0.114489 -0.237934 0
-0.107811 -0.225840 0
-0.100325 -0.211598 0
-0.092242 -0.195676 0
-0.083789 -0.178599 0
-0.075196 -0.160907 0
-0.066681 -0.143126 0
-0.058440 -0.125730 0
-0.050634 -0.109117 0
-0.043386 -0.093595 0
-0.036778 -0.079372 0
-0.030849 -0.066562 0
-0.025606 -0.055195 0
-0.021027 -0.045236 0
-0.017067 -0.036597 0
-0.013669 -0.029160 0
-0.010767 -0.022785 0
-0.008295 -0.017325 0
-0.006183 -0.012630 0
-0.004364 -0.008549 0
-0.002773 -0.004930 0
-0.001343 -0.001608 0
0.000000 0.000000 0
0.000000 -0.000000 0
-0.015596 -0.018494 0
-0.031017 -0.036969 0
-0.045799 -0.055151 0
-0.059475 -0.072687 0
-0.071821 -0.089426 0
-0.082888 -0.105474 0
-0.092906 -0.121111 0
-0.102164 -0.136670 0
-0.110921 -0.152436 0
-0.119367 -0.168604 0
-0.127613 -0.185261 0
-0.135699 -0.202395 0
-0.143614 -0.219906 0
-0.151301 -0.237629 0
-0.158676 -0.255340 0
-0.165633 -0.272771 0
-0.172051 -0.289620 0
-0.177797 -0.305555 0
-0.182733 -0.320229 0
-0.186721 -0.333281 0
-0.189622 -0.344354 0
-0.191311 -0.353102 0
-0.191675 -0.359206 0
-0.190625 -0.362387 0
-0.188101 -0.362424 0
-0.184076 -0.359166 0
-0.178568 -0.352552 0
-0.171635 -0.342616 0
-0.163385 -0.329503 0
-0.153969 -0.313467 0
-0.143583 -0.294871 0
-0.132454 -0.274173 0
-0.120837 -0.251909 0
-0.108999 -0.228663 0
-0.097201 -0.205031 0
-0.085690 -0.181589 0
-0.074681 -0.158855 0
-0.064345 -0.137264 0
-0.054809 -0.117145 0
-0.046148 -0.098716 0
-0.038392 -0.082088 0
-0.031529 -0.067276 0
-0.025514 -0.054214 0
-0.020281 -0.042776 0
-0.015746 -0.032794 0
-0.011813 -0.024068 0
-0.008382 -0.016377 0
-0.005348 -0.009478 0
-0.002596 -0.003097 0
0.000000 0.000000 0
0.000000 -0.000000 0
-0.021571 -0.025239 0
-0.042352 -0.049805 0
-0.061505 -0.073042 0
-0.078438 -0.094471 0
-0.093021 -0.114040 0
-0.105517 -0.132074 0
-0.116374 -0.149075 0
-0.126054 -0.165541 0
-0.134933 -0.181862 0
-0.143277 -0.198290 0
-0.151250 -0.214946 0
-0.158932 -0.231846 0
-0.166345 -0.248926 0
-0.173471 -0.266066 0
-0.180262 -0.283100 0
-0.186646 -0.299827 0
-0.192538 -0.316017 0
-0.197836 -0.331412 0
-0.202427 -0.345732 0
-0.206190 -0.358677 0
-0.208999 -0.369933 0
-0.210731 -0.379185 0
-0.211268 -0.386124 0
-0.210507 -0.390465 0
-0.208369 -0.391958 0
-0.204803 -0.390410 0
-0.199790 -0.385691 0
-0.193355 -0.377753 0
-0.185561 -0.366639 0
-0.176515 -0.352486 0
-0.166363 -0.335530 0
-0.155288 -0.316099 0
-0.143504 -0.294606 0
-0.131244 -0.271533 0
-0.118756 -0.247407 0
-0.106283 -0.222778 0
-0.094060 -0.198185 0
-0.082295 -0.174130 0
-0.071160 -0.151049 0
-0.060790 -0.129290 0
-0.051270 -0.109103 0
-0.042644 -0.090637 0
-0.034913 -0.073941 0
-0.028043 -0.058980 0
-0.021972 -0.045644 0
-0.016613 -0.033763 0
-0.011865 -0.023117 0
-0.007608 -0.013438 0
-0.003706 -0.004402 0
0.000000 0.000000 0
0.000000 -0.000000 0
-0.025814 -0.029636 0
-0.050056 -0.057765 0
-0.071569 -0.083389 0
-0.089797 -0.106070 0
-0.104852 -0.126014 0
-0.117271 -0.143837 0
-0.127724 -0.160271 0
-0.136816 -0.175957 0
-0.145013 -0.191372 0
-0.152633 -0.206818 0
-0.159877 -0.222455 0
-0.166856 -0.238339 0
-0.173617 -0.254448 0
-0.180165 -0.270705 0
-0.186473 -0.286990 0
-0.192487 -0.303143 0
-0.198131 -0.318970 0
-0.203312 -0.334243 0
-0.207918 -0.348700 0
-0.211824 -0.362049 0
-0.214896 -0.373977 0
-0.216999 -0.384157 0
-0.217999 -0.392260 0
-0.217778 -0.397972 0
-0.216234 -0.401012 0
-0.213298 -0.401145 0
-0.208932 -0.398202 0
-0.203138 -0.392088 0
-0.195961 -0.382800 0
-0.187487 -0.370424 0
-0.177844 -0.355143 0
-0.167195 -0.337227 0
-0.155730 -0.317029 0
-0.143663 -0.294966 0
-0.131219 -0.271506 0
-0.118628 -0.247146 0
-0.106111 -0.222391 0
-0.093875 -0.197726 0
-0.082102 -0.173598 0
-0.070943 -0.150393 0
-0.060511 -0.128421 0
-0.050882 -0.107903 0
-0.042089 -0.088971 0
-0.034132 -0.071667 0
-0.026975 -0.055948 0
-0.020552 -0.041695 0
-0.014772 -0.028721 0
-0.009519 -0.016769 0
-0.004653 -0.005506 0
0.000000 0.000000 0
0.000000 -0.000000 0
-0.028440 -0.031875 0
-0.054587 -0.061516 0
-0.077091 -0.087717 0
-0.095541 -0.110197 0
-0.110319 -0.129446 0
-0.122201 -0.146333 0
-0.132015 -0.161747 0
-0.140454 -0.176416 0
-0.148027 -0.190858 0
-0.155077 -0.205397 0
-0.161817 -0.220215 0
-0.168368 -0.235387 0
-0.174788 -0.250912 0
-0.181089 -0.266737 0
-0.187247 -0.282759 0
-0.193215 -0.298840 0
-0.198917 -0.314797 0
-0.204259 -0.330411 0
-0.209124 -0.345423 0
-0.213384 -0.359540 0
-0.216895 -0.372439 0
-0.219511 -0.383777 0
-0.221086 -0.393203 0
-0.221484 -0.400377 0
-0.220586 -0.404979 0
-0.218303 -0.406739 0
-0.214578 -0.405444 0
-0.209395 -0.400959 0
-0.202780 -0.393238 0
-0.194808 -0.382332 0
-0.185593 -0.368388 0
-0.175290 -0.351648 0
-0.164084 -0.332438 0
-0.152184 -0.311153 0
-0.139812 -0.288242 0
-0.127192 -0.264182 0
-0.114543 -0.239461 0
-0.102068 -0.214553 0
-0.089950 -0.189900 0
-0.078342 -0.165892 0
-0.067366 -0.142857 0
-0.057107 -0.121045 0
-0.047617 -0.100625 0
-0.038911 -0.081683 0
-0.030972 -0.064220 0
-0.023749 -0.048160 0
-0.017164 -0.033345 0
-0.011110 -0.019542 0
-0.005448 -0.006430 0
0.000000 0.000000 0
0.000000 -0.000000 0
-0.029793 -0.032438 0
-0.056768 -0.062167 0
-0.079492 -0.087905 0
-0.097718 -0.109544 0
-0.112040 -0.127796 0
-0.123395 -0.143679 0
-0.132696 -0.158163 0
-0.140674 -0.172001 0
-0.147850 -0.185718 0
-0.154569 -0.199639 0
-0.161046 -0.213950 0
-0.167404 -0.228730 0
-0.173700 -0.243990 0
-0.179950 -0.259685 0
-0.186132 -0.275726 0
-0.192200 -0.291983 0
-0.198080 -0.308283 0
-0.203679 -0.324415 0
-0.208880 -0.340125 0
-0.213553 -0.355119 0
-0.217550 -0.369071 0
-0.220717 -0.381627 0
-0.222898 -0.392419 0
-0.223942 -0.401082 0
-0.223715 -0.407265 0
-0.222106 -0.410657 0
-0.219037 -0.411003 0
-0.214472 -0.408122 0
-0.208418 -0.401921 0
-0.200930 -0.392408 0
-0.192112 -0.379692 0
-0.182108 -0.363985 0
-0.171100 -0.345592 0
-0.159298 -0.324896 0
-0.146928 -0.302342 0
-0.134221 -0.278411 0
-0.121403 -0.253598 0
-0.108684 -0.228386 0
-0.096252 -0.203228 0
-0.084267 -0.178526 0
-0.072853 -0.154619 0
-0.062103 -0.131774 0
-0.052075 -0.110180 0
-0.042790 -0.089942 0
-0.034241 -0.071087 0
-0.026385 -0.053562 0
-0.019152 -0.037234 0
-0.012441 -0.021886 0
-0.006115 -0.007214 0
0.000000 0.000000 0
0.000000 -0.000000 0
-0.030260 -0.031834 0
-0.057395 -0.060749 0
-0.079957 -0.085477 0
-0.097827 -0.106045 0
-0.111733 -0.123288 0
-0.122693 -0.138288 0
-0.131653 -0.152024 0
-0.139349 -0.165242 0
-0.146301 -0.178450 0
-0.152849 -0.191966 0
-0.159204 -0.205967 0
-0.165487 -0.220536 0
-0.171758 -0.235687 0
-0.178032 -0.251383 0
-0.184295 -0.267546 0
-0.190501 -0.284054 0
-0.196582 -0.300748 0
-0.202450 -0.317426 0
-0.207992 -0.333842 0
-0.213077 -0.349711 0
-0.217557 -0.364707 0
-0.221275 -0.378471 0
-0.224066 -0.390623 0
-0.225766 -0.400777 0
-0.226226 -0.408554 0
-0.225313 -0.413605 0
-0.222930 -0.415632 0
-0.219015 -0.414404 0
-0.213554 -0.409777 0
-0.206580 -0.401709 0
-0.198180 -0.390263 0
-0.188486 -0.375612 0
-0.177673 -0.358034 0
-0.165951 -0.337895 0
-0.153551 -0.315637 0
-0.140713 -0.291749 0
-0.127677 -0.266743 0
-0.114667 -0.241127 0
-0.101885 -0.215379 0
-0.089500 -0.189928 0
-0.077651 -0.165138 0
-0.066434 -0.141295 0
-0.055914 -0.118607 0
-0.046118 -0.097197 0
-0.037039 -0.077106 0
-0.028640 -0.058294 0
-0.020854 -0.040640 0
-0.013581 -0.023941 0
-0.006688 -0.007901 0
0.000000 0.000000 0
0.000000 -0.000000 0
-0.030164 -0.030473 0
-0.057075 -0.058030 0
-0.079303 -0.081467 0
-0.096810 -0.100895 0
-0.110386 -0.117191 0
-0.121074 -0.131431 0
-0.129821 -0.144566 0
-0.137355 -0.157309 0
-0.144184 -0.170144 0
-0.150644 -0.183372 0
-0.156941 -0.197164 0
-0.163196 -0.211601 0
-0.169471 -0.226702 0
-0.175787 -0.242436 0
-0.182132 -0.258736 0
-0.188470 -0.275494 0
-0.194738 -0.292563 0
-0.200855 -0.309755 0
-0.206715 -0.326840 0
-0.212190 -0.343540 0
-0.217135 -0.359535 0
-0.221389 -0.374469 0
-0.224782 -0.387953 0
-0.227140 -0.399585 0
-0.228297 -0.408961 0
-0.228103 -0.415697 0
-0.226436 -0.419452 0
-0.223211 -0.419945 0
-0.218387 -0.416980 0
-0.211976 -0.410457 0
-0.204041 -0.400387 0
-0.194699 -0.386897 0
-0.184116 -0.370226 0
-0.172495 -0.350716 0
-0.160071 -0.328799 0
-0.147094 -0.304965 0
-0.133817 -0.279747 0
-0.120482 -0.253679 0
-0.107310 -0.227277 0
-0.094490 -0.201006 0
-0.082172 -0.175267 0
-0.070468 -0.150380 0
-0.059450 -0.126578 0
-0.049151 -0.104003 0
-0.039567 -0.082713 0
-0.030664 -0.062677 0
-0.022373 -0.043783 0
-0.014595 -0.025832 0
-0.007196 -0.008534 0
0.000000 0.000000 0
0.000000 -0.000000 0
-0.029738 -0.028639 0
-0.056216 -0.054512 0
-0.078042 -0.076507 0
-0.095213 -0.094777 0
-0.108535 -0.110181 0
-0.119039 -0.123748 0
-0.127654 -0.136374 0
-0.135093 -0.148729 0
-0.141852 -0.161265 0
-0.148260 -0.174265 0
-0.154522 -0.187891 0
-0.160760 -0.202223 0
-0.167040 -0.217284 0
-0.173387 -0.233053 0
-0.179797 -0.249471 0
-0.186243 -0.266446 0
-0.192670 -0.283847 0
-0.199005 -0.301503 0
-0.205150 -0.319196 0
-0.210985 -0.336667 0
-0.216367 -0.353604 0
-0.221135 -0.369655 0
-0.225116 -0.384430 0
-0.228126 -0.397514 0
-0.229985 -0.408483 0
-0.230526 -0.416922 0
-0.229604 -0.422447 0
-0.227108 -0.424730 0
-0.222970 -0.423517 0
-0.217176 -0.418652 0
-0.209765 -0.410088 0
-0.200833 -0.397897 0
-0.190532 -0.382271 0
-0.179057 -0.363519 0
-0.166642 -0.342049 0
-0.153544 -0.318352 0
-0.140028 -0.292969 0
-0.126357 -0.266463 0
-0.112771 -0.239387 0
-0.099481 -0.212252 0
-0.086659 -0.185504 0
-0.074433 -0.159507 0
-0.062890 -0.134529 0
-0.052070 -0.110743 0
-0.041975 -0.088225 0
-0.032573 -0.066959 0
-0.023794 -0.046838 0
-0.015537 -0.027665 0
-0.007666 -0.009146 0
0.000000 0.000000 0
0.000000 -0.000000 0
-0.029133 -0.026510 0
-0.055076 -0.050500 0
-0.076477 -0.070962 0
-0.093345 -0.088062 0
-0.106466 -0.102608 0
-0.116840 -0.115552 0
-0.125372 -0.127722 0
-0.132751 -0.139736 0
-0.139465 -0.152011 0
-0.145835 -0.164810 0
-0.152065 -0.178286 0
-0.158281 -0.192518 0
-0.164552 -0.207531 0
-0.170911 -0.223314 0
-0.177362 -0.239820 0
-0.183885 -0.256970 0
-0.190438 -0.274651 0
-0.196956 -0.292710 0
-0.203350 -0.310948 0
-0.209508 -0.329121 0
-0.215293 -0.346933 0
-0.220548 -0.364040 0
-0.225095 -0.380054 0
-0.228745 -0.394554 0
-0.231307 -0.407098 0
-0.232594 -0.417245 0
-0.232440 -0.424572 0
-0.230709 -0.428704 0
-0.227305 -0.429331 0
-0.222185 -0.426238 0
-0.215360 -0.419314 0
-0.206904 -0.408572 0
-0.196949 -0.394150 0
-0.185678 -0.376313 0
-0.173321 -0.355439 0
-0.160138 -0.332003 0
-0.146406 -0.306552 0
-0.132404 -0.279668 0
-0.118394 -0.251942 0
-0.104612 -0.223932 0
-0.091254 -0.196136 0
-0.078472 -0.168969 0
-0.066368 -0.142746 0
-0.054996 -0.117679 0
-0.044367 -0.093871 0
-0.034452 -0.071324 0
-0.025181 -0.049939 0
-0.016450 -0.029520 0
-0.008119 -0.009766 0
0.000000 0.000000 0
0.000000 -0.000000 0
-0.028442 -0.024189 0
-0.053808 -0.046163 0
-0.074786 -0.065028 0
-0.091378 -0.080944 0
-0.104333 -0.094644 0
-0.114613 -0.106990 0
-0.123086 -0.118732 0
-0.130425 -0.130429 0
-0.137103 -0.142463 0
-0.143437 -0.155074 0
-0.149631 -0.168405 0
-0.155814 -0.182531 0
-0.162060 -0.197484 0
-0.168408 -0.213257 0
-0.174872 -0.229816 0
-0.181441 -0.247098 0
-0.188083 -0.265006 0
-0.194744 -0.283406 0
-0.201347 -0.302121 0
-0.207789 -0.320925 0
-0.213940 -0.339539 0
-0.219647 -0.357633 0
-0.224733 -0.374826 0
-0.229005 -0.390694 0
-0.232262 -0.404784 0
-0.234301 -0.416631 0
-0.234935 -0.425779 0
-0.234001 -0.431807 0
-0.231376 -0.434353 0
-0.226985 -0.433138 0
-0.220811 -0.427988 0
-0.212900 -0.418849 0
-0.203362 -0.405800 0
-0.192363 -0.389052 0
-0.180124 -0.368943 0
-0.166905 -0.345924 0
-0.152992 -0.320534 0
-0.138678 -0.293372 0
-0.124248 -0.265057 0
-0.109963 -0.236193 0
-0.096046 -0.207333 0
-0.082674 -0.178951 0
-0.069973 -0.151418 0
-0.058013 -0.124992 0
-0.046818 -0.099813 0
-0.036362 -0.075908 0
-0.026581 -0.053190 0
-0.017366 -0.031464 0
-0.008571 -0.010416 0
0.000000 0.000000 0
0.000000 -0.000000 0
-0.027723 -0.021731 0
-0.052503 -0.041591 0
-0.073071 -0.058803 0
-0.089410 -0.073513 0
-0.102224 -0.086365 0
-0.112429 -0.098123 0
-0.120861 -0.109451 0
-0.128168 -0.120847 0
-0.134814 -0.132651 0
-0.141110 -0.145082 0
-0.147261 -0.158269 0
-0.153397 -0.172285 0
-0.159599 -0.187162 0
-0.165913 -0.202902 0
-0.172361 -0.219482 0
-0.178943 -0.236853 0
-0.185637 -0.254937 0
-0.192402 -0.273618 0
-0.199171 -0.292742 0
-0.205852 -0.312102 0
-0.212327 -0.331443 0
-0.218447 -0.350449 0
-0.224039 -0.368750 0
-0.228909 -0.385927 0
-0.232846 -0.401520 0
-0.235636 -0.415047 0
-0.237070 -0.426022 0
-0.236961 -0.433982 0
-0.235157 -0.438512 0
-0.231550 -0.439273 0
-0.226092 -0.436023 0
-0.218798 -0.428640 0
-0.209750 -0.417136 0
-0.199097 -0.401661 0
-0.187045 -0.382503 0
-0.173850 -0.360078 0
-0.159802 -0.334907 0
-0.145207 -0.307594 0
-0.130370 -0.278780 0
-0.115580 -0.249113 0
-0.101088 -0.219201 0
-0.087100 -0.189577 0
-0.073765 -0.160677 0
-0.061179 -0.132814 0
-0.049379 -0.106175 0
-0.038350 -0.080817 0
-0.028030 -0.056672 0
-0.018309 -0.033546 0
-0.009035 -0.011114 0
0.000000 0.000000 0
0.000000 -0.000000 0
-0.027009 -0.019158 0
-0.051217 -0.036820 0
-0.071394 -0.052327 0
-0.087500 -0.065801 0
-0.100191 -0.077797 0
-0.110337 -0.088969 0
-0.118736 -0.099892 0
-0.126018 -0.110996 0
-0.132632 -0.122581 0
-0.138887 -0.134838 0
-0.144986 -0.147883 0
-0.151062 -0.161785 0
-0.157202 -0.176575 0
-0.163459 -0.192264 0
-0.169862 -0.208836 0
-0.176423 -0.226259 0
-0.183132 -0.244469 0
-0.189958 -0.263372 0
-0.196848 -0.282836 0
-0.203723 -0.302679 0
-0.210474 -0.322666 0
-0.216963 -0.342503 0
-0.223022 -0.361835 0
-0.228458 -0.380253 0
-0.233054 -0.397295 0
-0.236586 -0.412467 0
-0.238827 -0.425260 0
-0.239566 -0.435172 0
-0.238619 -0.441739 0
-0.235848 -0.444561 0
-0.231169 -0.443330 0
-0.224565 -0.437851 0
-0.216087 -0.428064 0
-0.205859 -0.414051 0
-0.194069 -0.396040 0
-0.180966 -0.374402 0
-0.166838 -0.349631 0
-0.152002 -0.322320 0
-0.136784 -0.293128 0
-0.121495 -0.262735 0
-0.106418 -0.231804 0
-0.091789 -0.200931 0
-0.077789 -0.170619 0
-0.064537 -0.141245 0
-0.052091 -0.113051 0
-0.040449 -0.086135 0
-0.029554 -0.060451 0
-0.019298 -0.035811 0
-0.009521 -0.011875 0
0.000000 0.000000 0
0.000000 -0.000000 0
-0.026322 -0.016474 0
-0.049984 -0.031854 0
-0.069793 -0.045599 0
-0.085686 -0.057808 0
-0.098271 -0.068933 0
-0.108369 -0.079518 0
-0.116745 -0.090041 0
-0.124006 -0.100865 0
-0.130589 -0.112242 0
-0.136799 -0.124335 0
-0.142837 -0.137245 0
-0.148841 -0.151033 0
-0.154901 -0.165731 0
-0.161077 -0.181352 0
-0.167408 -0.197894 0
-0.173914 -0.215333 0
-0.180598 -0.233625 0
-0.187441 -0.252695 0
-0.194405 -0.272434 0
-0.201423 -0.292684 0
-0.208401 -0.313235 0
-0.215210 -0.333817 0
-0.221691 -0.354097 0
-0.227654 -0.373677 0
-0.232882 -0.392102 0
-0.237140 -0.408871 0
-0.240187 -0.423457 0
-0.241788 -0.435326 0
-0.241731 -0.443967 0
-0.239844 -0.448923 0
-0.236007 -0.449818 0
-0.230166 -0.446383 0
-0.222338 -0.438482 0
-0.212618 -0.426121 0
-0.201173 -0.409463 0
-0.188236 -0.388819 0
-0.174093 -0.364645 0
-0.159067 -0.337515 0
-0.143500 -0.308089 0
-0.127727 -0.277075 0
-0.112062 -0.245183 0
-0.096774 -0.213073 0
-0.082077 -0.181318 0
-0.068121 -0.150367 0
-0.054985 -0.120524 0
-0.042687 -0.091935 0
-0.031176 -0.064587 0
-0.020348 -0.038298 0
-0.010035 -0.012714 0
0.000000 0.000000 0
0.000000 -0.000000 0
-0.025675 -0.013667 0
-0.048827 -0.026676 0
-0.068297 -0.038600 0
-0.083999 -0.049507 0
-0.096493 -0.059747 0
-0.106555 -0.069744 0
-0.114916 -0.079876 0
-0.122160 -0.090433 0
-0.128714 -0.101617 0
-0.134876 -0.113560 0
-0.140847 -0.126345 0
-0.146765 -0.140025 0
-0.152728 -0.154629 0
-0.158800 -0.170176 0
-0.165030 -0.186668 0
-0.171448 -0.204095 0
-0.178067 -0.222429 0
-0.184884 -0.241615 0
-0.191872 -0.261565 0
-0.198981 -0.282148 0
-0.206130 -0.303181 0
-0.213205 -0.324420 0
-0.220057 -0.345556 0
-0.226502 -0.366210 0
-0.232325 -0.385940 0
-0.237286 -0.404245 0
-0.241129 -0.420583 0
-0.243601 -0.434397 0
-0.244460 -0.445134 0
-0.243501 -0.452281 0
-0.240566 -0.455396 0
-0.235561 -0.454136 0
-0.228466 -0.448284 0
-0.219342 -0.437766 0
-0.208329 -0.422668 0
-0.195641 -0.403236 0
-0.181555 -0.379874 0
-0.166399 -0.353122 0
-0.150524 -0.323632 0
-0.134290 -0.292129 0
-0.118041 -0.259361 0
-0.102080 -0.226048 0
-0.086658 -0.192836 0
-0.071958 -0.160250 0
-0.058088 -0.128665 0
-0.045085 -0.098285 0
-0.032914 -0.069133 0
-0.021471 -0.041044 0
-0.010584 -0.013645 0
0.000000 0.000000 0
0.000000 -0.000000 0
-0.025077 -0.010718 0
-0.047763 -0.021254 0
-0.066928 -0.031291 0
-0.082463 -0.040860 0
-0.094885 -0.050200 0
-0.104924 -0.059610 0
-0.113279 -0.069363 0
-0.120512 -0.079671 0
-0.127039 -0.090682 0
-0.133150 -0.102494 0
-0.139047 -0.115171 0
-0.144869 -0.128755 0
-0.150717 -0.143271 0
-0.156663 -0.158740 0
-0.162764 -0.175170 0
-0.169059 -0.192563 0
-0.175573 -0.210905 0
-0.182317 -0.230159 0
-0.189279 -0.250261 0
-0.196424 -0.271105 0
-0.203687 -0.292536 0
-0.210969 -0.314341 0
-0.218134 -0.336238 0
-0.225009 -0.357871 0
-0.231383 -0.378816 0
-0.237014 -0.398580 0
-0.241637 -0.416616 0
-0.244979 -0.432345 0
-0.246773 -0.445181 0
-0.246780 -0.454559 0
-0.244802 -0.459974 0
-0.240705 -0.461007 0
-0.234427 -0.457359 0
-0.225990 -0.448870 0
-0.215502 -0.435543 0
-0.203153 -0.417549 0
-0.189207 -0.395226 0
-0.173987 -0.369071 0
-0.157856 -0.339711 0
-0.141193 -0.307876 0
-0.124370 -0.274342 0
-0.107728 -0.239885 0
-0.091556 -0.205221 0
-0.076073 -0.170955 0
-0.061423 -0.137540 0
-0.047665 -0.105247 0
-0.034783 -0.074144 0
-0.022677 -0.044085 0
-0.011173 -0.014681 0
0.000000 0.000000 0
0.000000 -0.000000 0
-0.024538 -0.007601 0
-0.046809 -0.015544 0
-0.065708 -0.023620 0
-0.081105 -0.031812 0
-0.093474 -0.040239 0
-0.103505 -0.049069 0
-0.111865 -0.058461 0
-0.119095 -0.068543 0
-0.125597 -0.079407 0
-0.131657 -0.091115 0
-0.137474 -0.103708 0
-0.143188 -0.117213 0
-0.148905 -0.131654 0
-0.154703 -0.147048 0
-0.160645 -0.163412 0
-0.166783 -0.180754 0
-0.173152 -0.199075 0
-0.179776 -0.218356 0
-0.186659 -0.238554 0
-0.193782 -0.259590 0
-0.201098 -0.281339 0
-0.208524 -0.303617 0
-0.215941 -0.326174 0
-0.223187 -0.348684 0
-0.230060 -0.370745 0
-0.236319 -0.391877 0
-0.241694 -0.411538 0
-0.245897 -0.429136 0
-0.248637 -0.444055 0
-0.249640 -0.455687 0
-0.248672 -0.463464 0
-0.245552 -0.466894 0
-0.240176 -0.465593 0
-0.232520 -0.459314 0
-0.222655 -0.447969 0
-0.210742 -0.431643 0
-0.197025 -0.410599 0
-0.181819 -0.385275 0
-0.165492 -0.356263 0
-0.148439 -0.324278 0
-0.131062 -0.290118 0
-0.113737 -0.254601 0
-0.096793 -0.218511 0
-0.080491 -0.182536 0
-0.065012 -0.147211 0