# vtk DataFile Version 2.0
generated by CFD-lab course output (written by Tobias Neckel) 
ASCII

DATASET STRUCTURED_GRID
DIMENSIONS  51 51 1 
POINTS 2601 float

0.000000 0.000000 0
0.020000 0.000000 0
0.040000 0.000000 0
0.060000 0.000000 0
0.080000 0.000000 0
0.100000 0.000000 0
0.120000 0.000000 0
0.140000 0.000000 0
0.160000 0.000000 0
0.180000 0.000000 0
0.200000 0.000000 0
0.220000 0.000000 0
0.240000 0.000000 0
0.260000 0.000000 0
0.280000 0.000000 0
0.300000 0.000000 0
0.320000 0.000000 0
0.340000 0.000000 0
0.360000 0.000000 0
0.380000 0.000000 0
0.400000 0.000000 0
0.420000 0.000000 0
0.440000 0.000000 0
0.460000 0.000000 0
0.480000 0.000000 0
0.500000 0.000000 0
0.520000 0.000000 0
0.540000 0.000000 0
0.560000 0.000000 0
0.580000 0.000000 0
0.600000 0.000000 0
0.620000 0.000000 0
0.640000 0.000000 0
0.660000 0.000000 0
0.680000 0.000000 0
0.700000 0.000000 0
0.720000 0.000000 0
0.740000 0.000000 0
0.760000 0.000000 0
0.780000 0.000000 0
0.800000 0.000000 0
0.820000 0.000000 0
0.840000 0.000000 0
0.860000 0.000000 0
0.880000 0.000000 0
0.900000 0.000000 0
0.920000 0.000000 0
0.940000 0.000000 0
0.960000 0.000000 0
0.980000 0.000000 0
1.000000 0.000000 0
0.000000 0.020000 0
0.020000 0.020000 0
0.040000 0.020000 0
0.060000 0.020000 0
0.080000 0.020000 0
0.100000 0.020000 0
0.120000 0.020000 0
0.140000 0.020000 0
0.160000 0.020000 0
0.180000 0.020000 0
0.200000 0.020000 0
0.220000 0.020000 0
0.240000 0.020000 0
0.260000 0.020000 0
0.280000 0.020000 0
0.300000 0.020000 0
0.320000 0.020000 0
0.340000 0.020000 0
0.360000 0.020000 0
0.380000 0.020000 0
0.400000 0.020000 0
0.420000 0.020000 0
0.440000 0.020000 0
0.460000 0.020000 0
0.480000 0.020000 0
0.500000 0.020000 0
0.520000 0.020000 0
0.540000 0.020000 0
0.560000 0.020000 0
0.580000 0.020000 0
0.600000 0.020000 0
0.620000 0.020000 0
0.640000 0.020000 0
0.660000 0.020000 0
0.680000 0.020000 0
0.700000 0.020000 0
0.720000 0.020000 0
0.740000 0.020000 0
0.760000 0.020000 0
0.780000 0.020000 0
0.800000 0.020000 0
0.820000 0.020000 0
0.840000 0.020000 0
0.860000 0.020000 0
0.880000 0.020000 0
0.900000 0.020000 0
0.920000 0.020000 0
0.940000 0.020000 0
0.960000 0.020000 0
0.980000 0.020000 0
1.000000 0.020000 0
0.000000 0.040000 0
0.020000 0.040000 0
0.040000 0.040000 0
0.060000 0.040000 0
0.080000 0.040000 0
0.100000 0.040000 0
0.120000 0.040000 0
0.140000 0.040000 0
0.160000 0.040000 0
0.180000 0.040000 0
0.200000 0.040000 0
0.220000 0.040000 0
0.240000 0.040000 0
0.260000 0.040000 0
0.280000 0.040000 0
0.300000 0.040000 0
0.320000 0.040000 0
0.340000 0.040000 0
0.360000 0.040000 0
0.380000 0.040000 0
0.400000 0.040000 0
0.420000 0.040000 0
0.440000 0.040000 0
0.460000 0.040000 0
0.480000 0.040000 0
0.500000 0.040000 0
0.520000 0.040000 0
0.540000 0.040000 0
0.560000 0.040000 0
0.580000 0.040000 0
0.600000 0.040000 0
0.620000 0.040000 0
0.640000 0.040000 0
0.660000 0.040000 0
0.680000 0.040000 0
0.700000 0.040000 0
0.720000 0.040000 0
0.740000 0.040000 0
0.760000 0.040000 0
0.780000 0.040000 0
0.800000 0.040000 0
0.820000 0.040000 0
0.840000 0.040000 0
0.860000 0.040000 0
0.880000 0.040000 0
0.900000 0.040000 0
0.920000 0.040000 0
0.940000 0.040000 0
0.960000 0.040000 0
0.980000 0.040000 0
1.000000 0.040000 0
0.000000 0.060000 0
0.020000 0.060000 0
0.040000 0.060000 0
0.060000 0.060000 0
0.080000 0.060000 0
0.100000 0.060000 0
0.120000 0.060000 0
0.140000 0.060000 0
0.160000 0.060000 0
0.180000 0.060000 0
0.200000 0.060000 0
0.220000 0.060000 0
0.240000 0.060000 0
0.260000 0.060000 0
0.280000 0.060000 0
0.300000 0.060000 0
0.320000 0.060000 0
0.340000 0.060000 0
0.360000 0.060000 0
0.380000 0.060000 0
0.400000 0.060000 0
0.420000 0.060000 0
0.440000 0.060000 0
0.460000 0.060000 0
0.480000 0.060000 0
0.500000 0.060000 0
0.520000 0.060000 0
0.540000 0.060000 0
0.560000 0.060000 0
0.580000 0.060000 0
0.600000 0.060000 0
0.620000 0.060000 0
0.640000 0.060000 0
0.660000 0.060000 0
0.680000 0.060000 0
0.700000 0.060000 0
0.720000 0.060000 0
0.740000 0.060000 0
0.760000 0.060000 0
0.780000 0.060000 0
0.800000 0.060000 0
0.820000 0.060000 0
0.840000 0.060000 0
0.860000 0.060000 0
0.880000 0.060000 0
0.900000 0.060000 0
0.920000 0.060000 0
0.940000 0.060000 0
0.960000 0.060000 0
0.980000 0.060000 0
1.000000 0.060000 0
0.000000 0.080000 0
0.020000 0.080000 0
0.040000 0.080000 0
0.060000 0.080000 0
0.080000 0.080000 0
0.100000 0.080000 0
0.120000 0.080000 0
0.140000 0.080000 0
0.160000 0.080000 0
0.180000 0.080000 0
0.200000 0.080000 0
0.220000 0.080000 0
0.240000 0.080000 0
0.260000 0.080000 0
0.280000 0.080000 0
0.300000 0.080000 0
0.320000 0.080000 0
0.340000 0.080000 0
0.360000 0.080000 0
0.380000 0.080000 0
0.400000 0.080000 0
0.420000 0.080000 0
0.440000 0.080000 0
0.460000 0.080000 0
0.480000 0.080000 0
0.500000 0.080000 0
0.520000 0.080000 0
0.540000 0.080000 0
0.560000 0.080000 0
0.580000 0.080000 0
0.600000 0.080000 0
0.620000 0.080000 0
0.640000 0.080000 0
0.660000 0.080000 0
0.680000 0.080000 0
0.700000 0.080000 0
0.720000 0.080000 0
0.740000 0.080000 0
0.760000 0.080000 0
0.780000 0.080000 0
0.800000 0.080000 0
0.820000 0.080000 0
0.840000 0.080000 0
0.860000 0.080000 0
0.880000 0.080000 0
0.900000 0.080000 0
0.920000 0.080000 0
0.940000 0.080000 0
0.960000 0.080000 0
0.980000 0.080000 0
1.000000 0.080000 0
0.000000 0.100000 0
0.020000 0.100000 0
0.040000 0.100000 0
0.060000 0.100000 0
0.080000 0.100000 0
0.100000 0.100000 0
0.120000 0.100000 0
0.140000 0.100000 0
0.160000 0.100000 0
0.180000 0.100000 0
0.200000 0.100000 0
0.220000 0.100000 0
0.240000 0.100000 0
0.260000 0.100000 0
0.280000 0.100000 0
0.300000 0.100000 0
0.320000 0.100000 0
0.340000 0.100000 0
0.360000 0.100000 0
0.380000 0.100000 0
0.400000 0.100000 0
0.420000 0.100000 0
0.440000 0.100000 0
0.460000 0.100000 0
0.480000 0.100000 0
0.500000 0.100000 0
0.520000 0.100000 0
0.540000 0.100000 0
0.560000 0.100000 0
0.580000 0.100000 0
0.600000 0.100000 0
0.620000 0.100000 0
0.640000 0.100000 0
0.660000 0.100000 0
0.680000 0.100000 0
0.700000 0.100000 0
0.720000 0.100000 0
0.740000 0.100000 0
0.760000 0.100000 0
0.780000 0.100000 0
0.800000 0.100000 0
0.820000 0.100000 0
0.840000 0.100000 0
0.860000 0.100000 0
0.880000 0.100000 0
0.900000 0.100000 0
0.920000 0.100000 0
0.940000 0.100000 0
0.960000 0.100000 0
0.980000 0.100000 0
1.000000 0.100000 0
0.000000 0.120000 0
0.020000 0.120000 0
0.040000 0.120000 0
0.060000 0.120000 0
0.080000 0.120000 0
0.100000 0.120000 0
0.120000 0.120000 0
0.140000 0.120000 0
0.160000 0.120000 0
0.180000 0.120000 0
0.200000 0.120000 0
0.220000 0.120000 0
0.240000 0.120000 0
0.260000 0.120000 0
0.280000 0.120000 0
0.300000 0.120000 0
0.320000 0.120000 0
0.340000 0.120000 0
0.360000 0.120000 0
0.380000 0.120000 0
0.400000 0.120000 0
0.420000 0.120000 0
0.440000 0.120000 0
0.460000 0.120000 0
0.480000 0.120000 0
0.500000 0.120000 0
0.520000 0.120000 0
0.540000 0.120000 0
0.560000 0.120000 0
0.580000 0.120000 0
0.600000 0.120000 0
0.620000 0.120000 0
0.640000 0.120000 0
0.660000 0.120000 0
0.680000 0.120000 0
0.700000 0.120000 0
0.720000 0.120000 0
0.740000 0.120000 0
0.760000 0.120000 0
0.780000 0.120000 0
0.800000 0.120000 0
0.820000 0.120000 0
0.840000 0.120000 0
0.860000 0.120000 0
0.880000 0.120000 0
0.900000 0.120000 0
0.920000 0.120000 0
0.940000 0.120000 0
0.960000 0.120000 0
0.980000 0.120000 0
1.000000 0.120000 0
0.000000 0.140000 0
0.020000 0.140000 0
0.040000 0.140000 0
0.060000 0.140000 0
0.080000 0.140000 0
0.100000 0.140000 0
0.120000 0.140000 0
0.140000 0.140000 0
0.160000 0.140000 0
0.180000 0.140000 0
0.200000 0.140000 0
0.220000 0.140000 0
0.240000 0.140000 0
0.260000 0.140000 0
0.280000 0.140000 0
0.300000 0.140000 0
0.320000 0.140000 0
0.340000 0.140000 0
0.360000 0.140000 0
0.380000 0.140000 0
0.400000 0.140000 0
0.420000 0.140000 0
0.440000 0.140000 0
0.460000 0.140000 0
0.480000 0.140000 0
0.500000 0.140000 0
0.520000 0.140000 0
0.540000 0.140000 0
0.560000 0.140000 0
0.580000 0.140000 0
0.600000 0.140000 0
0.620000 0.140000 0
0.640000 0.140000 0
0.660000 0.140000 0
0.680000 0.140000 0
0.700000 0.140000 0
0.720000 0.140000 0
0.740000 0.140000 0
0.760000 0.140000 0
0.780000 0.140000 0
0.800000 0.140000 0
0.820000 0.140000 0
0.840000 0.140000 0
0.860000 0.140000 0
0.880000 0.140000 0
0.900000 0.140000 0
0.920000 0.140000 0
0.940000 0.140000 0
0.960000 0.140000 0
0.980000 0.140000 0
1.000000 0.140000 0
0.000000 0.160000 0
0.020000 0.160000 0
0.040000 0.160000 0
0.060000 0.160000 0
0.080000 0.160000 0
0.100000 0.160000 0
0.120000 0.160000 0
0.140000 0.160000 0
0.160000 0.160000 0
0.180000 0.160000 0
0.200000 0.160000 0
0.220000 0.160000 0
0.240000 0.160000 0
0.260000 0.160000 0
0.280000 0.160000 0
0.300000 0.160000 0
0.320000 0.160000 0
0.340000 0.160000 0
0.360000 0.160000 0
0.380000 0.160000 0
0.400000 0.160000 0
0.420000 0.160000 0
0.440000 0.160000 0
0.460000 0.160000 0
0.480000 0.160000 0
0.500000 0.160000 0
0.520000 0.160000 0
0.540000 0.160000 0
0.560000 0.160000 0
0.580000 0.160000 0
0.600000 0.160000 0
0.620000 0.160000 0
0.640000 0.160000 0
0.660000 0.160000 0
0.680000 0.160000 0
0.700000 0.160000 0
0.720000 0.160000 0
0.740000 0.160000 0
0.760000 0.160000 0
0.780000 0.160000 0
0.800000 0.160000 0
0.820000 0.160000 0
0.840000 0.160000 0
0.860000 0.160000 0
0.880000 0.160000 0
0.900000 0.160000 0
0.920000 0.160000 0
0.940000 0.160000 0
0.960000 0.160000 0
0.980000 0.160000 0
1.000000 0.160000 0
0.000000 0.180000 0
0.020000 0.180000 0
0.040000 0.180000 0
0.060000 0.180000 0
0.080000 0.180000 0
0.100000 0.180000 0
0.120000 0.180000 0
0.140000 0.180000 0
0.160000 0.180000 0
0.180000 0.180000 0
0.200000 0.180000 0
0.220000 0.180000 0
0.240000 0.180000 0
0.260000 0.180000 0
0.280000 0.180000 0
0.300000 0.180000 0
0.320000 0.180000 0
0.340000 0.180000 0
0.360000 0.180000 0
0.380000 0.180000 0
0.400000 0.180000 0
0.420000 0.180000 0
0.440000 0.180000 0
0.460000 0.180000 0
0.480000 0.180000 0
0.500000 0.180000 0
0.520000 0.180000 0
0.540000 0.180000 0
0.560000 0.180000 0
0.580000 0.180000 0
0.600000 0.180000 0
0.620000 0.180000 0
[...]
POINT_DATA 2601 

VECTORS velocity float
0.000000 0.000000 0
0.000000 0.000000 0
0.000001 0.000000 0
0.000001 0.000000 0
0.000001 0.000000 0
0.000001 0.000000 0
0.000001 0.000000 0
0.000001 0.000000 0
0.000001 0.000000 0
0.000001 0.000000 0
0.000001 0.000000 0
0.000000 0.000000 0
0.000000 0.000000 0
0.000000 0.000000 0
0.000000 0.000000 0
0.000000 0.000000 0
0.000000 0.000000 0
0.000000 0.000000 0
0.000000 0.000000 0
0.000000 0.000000 0
0.000000 0.000000 0
0.000000 0.000000 0
0.000000 0.000000 0
0.000000 0.000000 0
0.000000 0.000000 0
0.000000 0.000000 0
0.000000 0.000000 0
0.000000 0.000000 0
0.000000 0.000000 0
0.000000 0.000000 0
0.000000 0.000000 0
-0.000000 0.000000 0
-0.000000 0.000000 0
-0.000000 0.000000 0
-0.000000 0.000000 0
-0.000000 0.000000 0
-0.000000 0.000000 0
-0.000000 0.000000 0
-0.000000 0.000000 0
-0.000000 0.000000 0
-0.000000 0.000000 0
-0.000000 0.000000 0
-0.000000 0.000000 0
-0.000000 0.000000 0
-0.000000 0.000000 0
-0.000000 0.000000 0
-0.000000 0.000000 0
-0.000000 0.000000 0
-0.000000 0.000000 0
-0.000000 0.000000 0
0.000000 0.000000 0
0.000000 0.000000 0
-0.008325 -0.009835 0
-0.016712 -0.019854 0
-0.024976 -0.030012 0
-0.032875 -0.040157 0
-0.040258 -0.050201 0
-0.047115 -0.060182 0
-0.053542 -0.070241 0
-0.059687 -0.080570 0
-0.065693 -0.091353 0
-0.071670 -0.102733 0
-0.077685 -0.114790 0
-0.083756 -0.127534 0
-0.089864 -0.140910 0
-0.095955 -0.154795 0
-0.101945 -0.169007 0
-0.107730 -0.183300 0
-0.113183 -0.197379 0
-0.118166 -0.210901 0
-0.122530 -0.223486 0
-0.126126 -0.234737 0
-0.128807 -0.244249 0
-0.130439 -0.251638 0
-0.130913 -0.256561 0
-0.130146 -0.258742 0
-0.128098 -0.257991 0
-0.124769 -0.254225 0
-0.120209 -0.247481 0
-0.114517 -0.237920 0
-0.107836 -0.225822 0
-0.100347 -0.211575 0
-0.092261 -0.195647 0
-0.083805 -0.178564 0
-0.075208 -0.160867 0
-0.066690 -0.143082 0
-0.058446 -0.125683 0
-0.050638 -0.109069 0
-0.043388 -0.093547 0
-0.036778 -0.079325 0
-0.030848 -0.066517 0
-0.025605 -0.055154 0
-0.021025 -0.045199 0
-0.017065 -0.036565 0
-0.013667 -0.029133 0
-0.010766 -0.022763 0
-0.008294 -0.017308 0
-0.006182 -0.012617 0
-0.004364 -0.008540 0
-0.002773 -0.004924 0
-0.001342 -0.001606 0
0.000000 0.000000 0
0.000000 0.000000 0
-0.015863 -0.018615 0
-0.031511 -0.037178 0
-0.046445 -0.055394 0
-0.060189 -0.072907 0
-0.072529 -0.089579 0
-0.083540 -0.105541 0
-0.093479 -0.121093 0
-0.102651 -0.136581 0
-0.111328 -0.152297 0
-0.119704 -0.168436 0
-0.127890 -0.185081 0
-0.135928 -0.202216 0
-0.143803 -0.219738 0
-0.151458 -0.237476 0
-0.158808 -0.255206 0
-0.165745 -0.272657 0
-0.172147 -0.289525 0
-0.177881 -0.305478 0
-0.182809 -0.320167 0
-0.186789 -0.333234 0
-0.189685 -0.344319 0
-0.191369 -0.353077 0
-0.191730 -0.359189 0
-0.190678 -0.362376 0
-0.188151 -0.362416 0
-0.184125 -0.359160 0
-0.178614 -0.352545 0
-0.171679 -0.342607 0
-0.163426 -0.329489 0
-0.154007 -0.313446 0
-0.143616 -0.294843 0
-0.132483 -0.274137 0
-0.120862 -0.251865 0
-0.109018 -0.228611 0
-0.097216 -0.204972 0
-0.085702 -0.181524 0
-0.074688 -0.158787 0
-0.064350 -0.137195 0
-0.054812 -0.117077 0
-0.046149 -0.098652 0
-0.038392 -0.082029 0
-0.031528 -0.067223 0
-0.025513 -0.054168 0
-0.020280 -0.042737 0
-0.015745 -0.032763 0
-0.011812 -0.024044 0
-0.008382 -0.016360 0
-0.005348 -0.009468 0
-0.002596 -0.003094 0
0.000000 0.000000 0
0.000000 0.000000 0
-0.021942 -0.025407 0
-0.043024 -0.050088 0
-0.062365 -0.073360 0
-0.079366 -0.094746 0
-0.093923 -0.114224 0
-0.106336 -0.132152 0
-0.117087 -0.149055 0
-0.126656 -0.165446 0
-0.135434 -0.181718 0
-0.143692 -0.198120 0
-0.151591 -0.214768 0
-0.159212 -0.231674 0
-0.166576 -0.248768 0
-0.173662 -0.265925 0
-0.180420 -0.282979 0
-0.186779 -0.299725 0
-0.192650 -0.315933 0
-0.197932 -0.331345 0
-0.202511 -0.345680 0
-0.206264 -0.358637 0
-0.209067 -0.369905 0
-0.210793 -0.379166 0
-0.211326 -0.386112 0
-0.210563 -0.390459 0
-0.208423 -0.391957 0
-0.204854 -0.390411 0
-0.199840 -0.385692 0
-0.193403 -0.377752 0
-0.185607 -0.366634 0
-0.176558 -0.352476 0
-0.166403 -0.335513 0
-0.155325 -0.316075 0
-0.143537 -0.294573 0
-0.131273 -0.271491 0
-0.118780 -0.247356 0
-0.106303 -0.222719 0
-0.094075 -0.198121 0
-0.082306 -0.174062 0
-0.071168 -0.150978 0
-0.060795 -0.129220 0
-0.051273 -0.109036 0
-0.042646 -0.090575 0
-0.034914 -0.073886 0
-0.028044 -0.058932 0
-0.021972 -0.045605 0
-0.016613 -0.033733 0
-0.011865 -0.023096 0
-0.007608 -0.013425 0
-0.003706 -0.004398 0
0.000000 0.000000 0
0.000000 0.000000 0
-0.026259 -0.029834 0
-0.050846 -0.058090 0
-0.072559 -0.083744 0
-0.090845 -0.106369 0
-0.105854 -0.126209 0
-0.118171 -0.143919 0
-0.128501 -0.160254 0
-0.137470 -0.175869 0
-0.145556 -0.191239 0
-0.153081 -0.206663 0
-0.160244 -0.222295 0
-0.167156 -0.238186 0
-0.173862 -0.254308 0
-0.180366 -0.270581 0
-0.186638 -0.286883 0
-0.192623 -0.303054 0
-0.198245 -0.318897 0
-0.203408 -0.334185 0
-0.208000 -0.348655 0
-0.211896 -0.362016 0
-0.214960 -0.373954 0
-0.217057 -0.384142 0
-0.218054 -0.392252 0
-0.217830 -0.397971 0
-0.216285 -0.401015 0
-0.213347 -0.401151 0
-0.208980 -0.398209 0
-0.203185 -0.392095 0
-0.196006 -0.382804 0
-0.187531 -0.370424 0
-0.177887 -0.355138 0
-0.167234 -0.337215 0
-0.155766 -0.317009 0
-0.143696 -0.294937 0
-0.131248 -0.271468 0
-0.118653 -0.247100 0
-0.106132 -0.222337 0
-0.093892 -0.197666 0
-0.082116 -0.173534 0
-0.070953 -0.150327 0
-0.060519 -0.128356 0
-0.050887 -0.107841 0
-0.042093 -0.088914 0
-0.034135 -0.071617 0
-0.026976 -0.055906 0
-0.020553 -0.041662 0
-0.014772 -0.028697 0
-0.009520 -0.016754 0
-0.004654 -0.005501 0
0.000000 0.000000 0
0.000000 0.000000 0
-0.028927 -0.032088 0
-0.055442 -0.061859 0
-0.078146 -0.088083 0
-0.096642 -0.110499 0
-0.111361 -0.129642 0
-0.123130 -0.146417 0
-0.132814 -0.161738 0
-0.141125 -0.176341 0
-0.148583 -0.190742 0
-0.155534 -0.205262 0
-0.162190 -0.220075 0
-0.168672 -0.235252 0
-0.175035 -0.250789 0
-0.181289 -0.266628 0
-0.187410 -0.282666 0
-0.193348 -0.298761 0
-0.199027 -0.314732 0
-0.204350 -0.330359 0
-0.209201 -0.345383 0
-0.213450 -0.359511 0
-0.216954 -0.372419 0
-0.219564 -0.383765 0
-0.221135 -0.393199 0
-0.221530 -0.400378 0
-0.220632 -0.404985 0
-0.218348 -0.406748 0
-0.214622 -0.405455 0
-0.209438 -0.400971 0
-0.202823 -0.393249 0
-0.194850 -0.382340 0
-0.185634 -0.368392 0
-0.175329 -0.351646 0
-0.164121 -0.332429 0
-0.152219 -0.311137 0
-0.139843 -0.288218 0
-0.127220 -0.264149 0
-0.114567 -0.239421 0
-0.102089 -0.214506 0
-0.089968 -0.189847 0
-0.078356 -0.165836 0
-0.067377 -0.142800 0
-0.057115 -0.120989 0
-0.047623 -0.100572 0
-0.038916 -0.081635 0
-0.030975 -0.064179 0
-0.023751 -0.048126 0
-0.017166 -0.033321 0
-0.011111 -0.019527 0
-0.005448 -0.006425 0
0.000000 0.000000 0
0.000000 0.000000 0
-0.030300 -0.032653 0
-0.057649 -0.062510 0
-0.080569 -0.088267 0
-0.098832 -0.109842 0
-0.113090 -0.127990 0
-0.124328 -0.143769 0
-0.133496 -0.158165 0
-0.141345 -0.171942 0
-0.148405 -0.185621 0
-0.155024 -0.199524 0
-0.161416 -0.213829 0
-0.167704 -0.228613 0
-0.173942 -0.243883 0
-0.180145 -0.259590 0
-0.186289 -0.275644 0
-0.192327 -0.291913 0
-0.198183 -0.308226 0
-0.203763 -0.324369 0
-0.208951 -0.340089 0
-0.213613 -0.355093 0
-0.217602 -0.369054 0
-0.220764 -0.381617 0
-0.222941 -0.392417 0
-0.223983 -0.401085 0
-0.223754 -0.407273 0
-0.222144 -0.410668 0
-0.219075 -0.411017 0
-0.214510 -0.408137 0
-0.208456 -0.401936 0
-0.200968 -0.392421 0
-0.192149 -0.379702 0
-0.182144 -0.363991 0
-0.171135 -0.345592 0
-0.159332 -0.324890 0
-0.146960 -0.302329 0
-0.134250 -0.278390 0
-0.121429 -0.253569 0
-0.108707 -0.228351 0
-0.096272 -0.203187 0
-0.084283 -0.178480 0
-0.072866 -0.154571 0
-0.062114 -0.131725 0
-0.052083 -0.110132 0
-0.042797 -0.089898 0
-0.034246 -0.071049 0
-0.026389 -0.053531 0
-0.019155 -0.037210 0
-0.012442 -0.021872 0
-0.006116 -0.007209 0
0.000000 0.000000 0
0.000000 0.000000 0
-0.030770 -0.032044 0
-0.058277 -0.061083 0
-0.081029 -0.085828 0
-0.098933 -0.106336 0
-0.112773 -0.123482 0
-0.123616 -0.138384 0
-0.132444 -0.152040 0
-0.140012 -0.165201 0
-0.146849 -0.178373 0
-0.153297 -0.191870 0
-0.159567 -0.205865 0
-0.165780 -0.220436 0
-0.171993 -0.235594 0
-0.178221 -0.251301 0
-0.184445 -0.267474 0
-0.190621 -0.283993 0
-0.196679 -0.300697 0
-0.202528 -0.317385 0
-0.208055 -0.333811 0
-0.213130 -0.349688 0
-0.217603 -0.364692 0
-0.221316 -0.378463 0
-0.224103 -0.390622 0
-0.225801 -0.400781 0
-0.226259 -0.408563 0
-0.225346 -0.413618 0
-0.222963 -0.415648 0
-0.219048 -0.414421 0
-0.213587 -0.409795 0
-0.206614 -0.401726 0
-0.198213 -0.390278 0
-0.188519 -0.375624 0
-0.177705 -0.358041 0
-0.165982 -0.337897 0
-0.153580 -0.315633 0
-0.140741 -0.291738 0
-0.127702 -0.266725 0
-0.114690 -0.241102 0
-0.101905 -0.215348 0
-0.089518 -0.189892 0
-0.077665 -0.165098 0
-0.066447 -0.141255 0
-0.055924 -0.118567 0
-0.046125 -0.097159 0
-0.037045 -0.077072 0
-0.028644 -0.058265 0
-0.020857 -0.040619 0
-0.013583 -0.023927 0
-0.006688 -0.007897 0
0.000000 0.000000 0
0.000000 0.000000 0
-0.030668 -0.030674 0
-0.057944 -0.058350 0
-0.080357 -0.081804 0
-0.097896 -0.101178 0
-0.111407 -0.117386 0
-0.121981 -0.131536 0
-0.130599 -0.144597 0
-0.138007 -0.157287 0
-0.144722 -0.170088 0
-0.151083 -0.183297 0
-0.157296 -0.197081 0
-0.163481 -0.211518 0
-0.169699 -0.226624 0
-0.175968 -0.242366 0
-0.182275 -0.258674 0
-0.188583 -0.275441 0
-0.194828 -0.292518 0
-0.200927 -0.309720 0
-0.206772 -0.326812 0
-0.212237 -0.343519 0
-0.217174 -0.359522 0
-0.221423 -0.374462 0
-0.224813 -0.387953 0
-0.227169 -0.399590 0
-0.228324 -0.408971 0
-0.228130 -0.415711 0
-0.226463 -0.419469 0
-0.223239 -0.419965 0
-0.218415 -0.417000 0
-0.212004 -0.410477 0
-0.204070 -0.400406 0
-0.194728 -0.386913 0
-0.184144 -0.370239 0
-0.172523 -0.350725 0
-0.160098 -0.328801 0
-0.147119 -0.304962 0
-0.133841 -0.279737 0
-0.120504 -0.253664 0
-0.107330 -0.227255 0
-0.094507 -0.200980 0
-0.082187 -0.175237 0
-0.070481 -0.150348 0
-0.059460 -0.126545 0
-0.049159 -0.103971 0
-0.039574 -0.082683 0
-0.030669 -0.062652 0
-0.022376 -0.043764 0
-0.014597 -0.025820 0
-0.007197 -0.008530 0
0.000000 0.000000 0
0.000000 0.000000 0
-0.030229 -0.028828 0
-0.057063 -0.054815 0
-0.079069 -0.076830 0
-0.096274 -0.095052 0
-0.109533 -0.110377 0
-0.119926 -0.123863 0
-0.128416 -0.136421 0
-0.135731 -0.148725 0
-0.142378 -0.161228 0
-0.148689 -0.174209 0
-0.154868 -0.187826 0
-0.161037 -0.202157 0
-0.167259 -0.217220 0
-0.173560 -0.232994 0
-0.179933 -0.249419 0
-0.186349 -0.266401 0
-0.192753 -0.283809 0
-0.199070 -0.301471 0
-0.205201 -0.319172 0
-0.211026 -0.336649 0
-0.216400 -0.353592 0
-0.221163 -0.369649 0
-0.225140 -0.384430 0
-0.228148 -0.397520 0
-0.230007 -0.408493 0
-0.230548 -0.416936 0
-0.229626 -0.422465 0
-0.227130 -0.424750 0
-0.222994 -0.423539 0
-0.217200 -0.418675 0
-0.209789 -0.410110 0
-0.200858 -0.397917 0
-0.190557 -0.382288 0
-0.179082 -0.363532 0
-0.166666 -0.342058 0
-0.153567 -0.318356 0
-0.140051 -0.292967 0
-0.126378 -0.266455 0
-0.112790 -0.239374 0
-0.099498 -0.212234 0
-0.086673 -0.185482 0
-0.074446 -0.159482 0
-0.062900 -0.134503 0
-0.052078 -0.110717 0
-0.041982 -0.088201 0
-0.032578 -0.066938 0
-0.023798 -0.046822 0
-0.015540 -0.027655 0
-0.007667 -0.009143 0
0.000000 0.000000 0
0.000000 0.000000 0
-0.029608 -0.026687 0
-0.055896 -0.050785 0
-0.077475 -0.071269 0
-0.094377 -0.088330 0
-0.107438 -0.102806 0
-0.117706 -0.115677 0
-0.126115 -0.127784 0
-0.133374 -0.139751 0
-0.139978 -0.151993 0
-0.146252 -0.164773 0
-0.152401 -0.178239 0
-0.158548 -0.192467 0
-0.164764 -0.207481 0
-0.171077 -0.223267 0
-0.177491 -0.239777 0
-0.183985 -0.256933 0
-0.190514 -0.274619 0
-0.197014 -0.292683 0
-0.203395 -0.310927 0
-0.209543 -0.329105 0
-0.215321 -0.346922 0
-0.220570 -0.364035 0
-0.225114 -0.380054 0
-0.228762 -0.394559 0
-0.231323 -0.407108 0
-0.232611 -0.417259 0
-0.232458 -0.424590 0
-0.230727 -0.428724 0
-0.227324 -0.429354 0
-0.222204 -0.426261 0
-0.215380 -0.419338 0
-0.206925 -0.408594 0
-0.196970 -0.394171 0
-0.185700 -0.376330 0
-0.173343 -0.355452 0
-0.160159 -0.332012 0
-0.146426 -0.306555 0
-0.132422 -0.279667 0
-0.118411 -0.251936 0
-0.104628 -0.223921 0
-0.091269 -0.196121 0
-0.078484 -0.168950 0
-0.066378 -0.142726 0
-0.055004 -0.117658 0
-0.044374 -0.093851 0
-0.034457 -0.071307 0
-0.025184 -0.049926 0
-0.016453 -0.029512 0
-0.008120 -0.009763 0
0.000000 0.000000 0
0.000000 0.000000 0
-0.028899 -0.024354 0
-0.054599 -0.046430 0
-0.075751 -0.065320 0
-0.092378 -0.081204 0
-0.105278 -0.094844 0
-0.115456 -0.107124 0
-0.123811 -0.118809 0
-0.131032 -0.130462 0
-0.137602 -0.142465 0
-0.143842 -0.155055 0
-0.149957 -0.168375 0
-0.156072 -0.182496 0
-0.162262 -0.197447 0
-0.168566 -0.213221 0
-0.174994 -0.229782 0
-0.181533 -0.247067 0
-0.188153 -0.264979 0
-0.194797 -0.283384 0
-0.201387 -0.302103 0
-0.207818 -0.320911 0
-0.213962 -0.339530 0
-0.219664 -0.357629 0
-0.224747 -0.374826 0
-0.229018 -0.390699 0
-0.232274 -0.404793 0
-0.234313 -0.416644 0
-0.234947 -0.425796 0
-0.234015 -0.431828 0
-0.231390 -0.434376 0
-0.227001 -0.433162 0
-0.220828 -0.428012 0
-0.212918 -0.418873 0
-0.203379 -0.405823 0
-0.192381 -0.389072 0
-0.180142 -0.368960 0
-0.166924 -0.345937 0
-0.153010 -0.320543 0
-0.138694 -0.293376 0
-0.124263 -0.265056 0
-0.109977 -0.236187 0
-0.096059 -0.207324 0
-0.082686 -0.178939 0
-0.069983 -0.151404 0
-0.058021 -0.124976 0
-0.046824 -0.099798 0
-0.036367 -0.075894 0
-0.026584 -0.053179 0
-0.017369 -0.031457 0
-0.008572 -0.010413 0
0.000000 0.000000 0
0.000000 0.000000 0
-0.028162 -0.021883 0
-0.053265 -0.041840 0
-0.074002 -0.059080 0
-0.090378 -0.073765 0
-0.103140 -0.086567 0
-0.113248 -0.098267 0
-0.121565 -0.109543 0
-0.128758 -0.120898 0
-0.135299 -0.132672 0
-0.141503 -0.145082 0
-0.147575 -0.158256 0
-0.153645 -0.172264 0
-0.159793 -0.187138 0
-0.166063 -0.202877 0
-0.172476 -0.219457 0
-0.179029 -0.236830 0
-0.185701 -0.254916 0
-0.192449 -0.273600 0
-0.199205 -0.292726 0
-0.205877 -0.312090 0
-0.212344 -0.331434 0
-0.218460 -0.350444 0
-0.224049 -0.368750 0
-0.228917 -0.385931 0
-0.232854 -0.401529 0
-0.235644 -0.415060 0
-0.237079 -0.426039 0
-0.236971 -0.434002 0
-0.235168 -0.438534 0
-0.231562 -0.439297 0
-0.226105 -0.436048 0
-0.218812 -0.428665 0
-0.209765 -0.417160 0
-0.199112 -0.401683 0
-0.187061 -0.382522 0
-0.173866 -0.360094 0
-0.159817 -0.334920 0
-0.145221 -0.307602 0
-0.130384 -0.278784 0
-0.115593 -0.249113 0
-0.101100 -0.219196 0
-0.087110 -0.189570 0
-0.073774 -0.160667 0
-0.061187 -0.132803 0
-0.049385 -0.106163 0
-0.038355 -0.080806 0
-0.028033 -0.056663 0
-0.018312 -0.033541 0
-0.009037 -0.011112 0
0.000000 0.000000 0
0.000000 0.000000 0
-0.027430 -0.019298 0
-0.051949 -0.037051 0
-0.072290 -0.052588 0
-0.088434 -0.066046 0
-0.101078 -0.077999 0
-0.111131 -0.089121 0
-0.119420 -0.099997 0
-0.126591 -0.111063 0
-0.133103 -0.122619 0
-0.139267 -0.134855 0
-0.145289 -0.147886 0
-0.151301 -0.161779 0
-0.157387 -0.176564 0
-0.163601 -0.192249 0
-0.169970 -0.208820 0
-0.176503 -0.226242 0
-0.183190 -0.244453 0
-0.190000 -0.263358 0
-0.196877 -0.282823 0
-0.203742 -0.302669 0
-0.210487 -0.322658 0
-0.216971 -0.342498 0
-0.223028 -0.361835 0
-0.228462 -0.380256 0
-0.233058 -0.397303 0
-0.236590 -0.412479 0
-0.238832 -0.425276 0
-0.239572 -0.435191 0
-0.238626 -0.441761 0
-0.235857 -0.444585 0
-0.231179 -0.443355 0
-0.224576 -0.437876 0
-0.216099 -0.428089 0
-0.205871 -0.414074 0
-0.194082 -0.396061 0
-0.180979 -0.374421 0
-0.166851 -0.349646 0
-0.152015 -0.322332 0
-0.136796 -0.293136 0
-0.121506 -0.262739 0
-0.106428 -0.231804 0
-0.091798 -0.200928 0
-0.077797 -0.170613 0
-0.064544 -0.141238 0
-0.052097 -0.113043 0
-0.040454 -0.086127 0
-0.029558 -0.060445 0
-0.019301 -0.035807 0
-0.009522 -0.011873 0
0.000000 0.000000 0
0.000000 0.000000 0
-0.026725 -0.016601 0
-0.050685 -0.032067 0
-0.070655 -0.045845 0
-0.086587 -0.058044 0
-0.099128 -0.069136 0
-0.109137 -0.079678 0
-0.117407 -0.090160 0
-0.124560 -0.100949 0
-0.131044 -0.112297 0
-0.137165 -0.124369 0
-0.143129 -0.137264 0
-0.149070 -0.151041 0
-0.155078 -0.165731 0
-0.161212 -0.181348 0
-0.167509 -0.197886 0
-0.173988 -0.215323 0
-0.180651 -0.233614 0
-0.187478 -0.252684 0
-0.194430 -0.272424 0
-0.201439 -0.292675 0
-0.208409 -0.313228 0
-0.215214 -0.333813 0
-0.221692 -0.354096 0
-0.227654 -0.373679 0
-0.232882 -0.392108 0
-0.237140 -0.408882 0
-0.240188 -0.423472 0
-0.241790 -0.435344 0
-0.241735 -0.443988 0
-0.239850 -0.448946 0
-0.236014 -0.449842 0
-0.230174 -0.446409 0
-0.222348 -0.438507 0
-0.212628 -0.426146 0
-0.201184 -0.409485 0
-0.188247 -0.388839 0
-0.174104 -0.364662 0
-0.159078 -0.337529 0
-0.143510 -0.308099 0
-0.127737 -0.277082 0
-0.112071 -0.245186 0
-0.096782 -0.213074 0
-0.082085 -0.181316 0
-0.068127 -0.150363 0
-0.054990 -0.120519 0
-0.042691 -0.091930 0
-0.031179 -0.064582 0
-0.020350 -0.038295 0
-0.010036 -0.012713 0
0.000000 0.000000 0
0.000000 0.000000 0
-0.026059 -0.013782 0
-0.049498 -0.026871 0
-0.069124 -0.038830 0
-0.084866 -0.049735 0
-0.097320 -0.059949 0
-0.107297 -0.069911 0
-0.115556 -0.080007 0
-0.122696 -0.090531 0
-0.129153 -0.101688 0
-0.135229 -0.113610 0
-0.141126 -0.126379 0
-0.146984 -0.140046 0
-0.152896 -0.154642 0
-0.158927 -0.170181 0
-0.165125 -0.186668 0
-0.171516 -0.204091 0
-0.178115 -0.222423 0
-0.184916 -0.241607 0
-0.191892 -0.261557 0
-0.198992 -0.282140 0
-0.206135 -0.303174 0
-0.213205 -0.324416 0
-0.220055 -0.345554 0
-0.226498 -0.366212 0
-0.232321 -0.385945 0
-0.237282 -0.404254 0
-0.241127 -0.420597 0
-0.243600 -0.434414 0
-0.244461 -0.445153 0
-0.243504 -0.452303 0
-0.240570 -0.455420 0
-0.235566 -0.454161 0
-0.228473 -0.448309 0
-0.219350 -0.437790 0
-0.208337 -0.422691 0
-0.195650 -0.403257 0
-0.181565 -0.379893 0
-0.166408 -0.353138 0
-0.150533 -0.323645 0
-0.134299 -0.292139 0
-0.118048 -0.259367 0
-0.102087 -0.226051 0
-0.086665 -0.192837 0
-0.071963 -0.160249 0
-0.058093 -0.128663 0
-0.045089 -0.098282 0
-0.032917 -0.069130 0
-0.021473 -0.041042 0
-0.010584 -0.013644 0
0.000000 0.000000 0
0.000000 0.000000 0
-0.025444 -0.010822 0
-0.048405 -0.021432 0
-0.067721 -0.031506 0
-0.083296 -0.041079 0
-0.095680 -0.050401 0
-0.105639 -0.059783 0
-0.113895 -0.069505 0
-0.121028 -0.079783 0
-0.127461 -0.090769 0
-0.133489 -0.102560 0
-0.139314 -0.115220 0
-0.145077 -0.128789 0
-0.150876 -0.143295 0
-0.156783 -0.158754 0
-0.162852 -0.175178 0
-0.169121 -0.192566 0
-0.175616 -0.210903 0
-0.182345 -0.230155 0
-0.189295 -0.250255 0
-0.196431 -0.271099 0
-0.203688 -0.292531 0
-0.210966 -0.314337 0
-0.218129 -0.336235 0
-0.225003 -0.357872 0
-0.231376 -0.378820 0
-0.237008 -0.398588 0
-0.241632 -0.416627 0
-0.244975 -0.432360 0
-0.246772 -0.445199 0
-0.246780 -0.454580 0
-0.244804 -0.459998 0
-0.240709 -0.461032 0
-0.234432 -0.457384 0
-0.225996 -0.448895 0
-0.215509 -0.435567 0
-0.203160 -0.417571 0
-0.189215 -0.395246 0
-0.173995 -0.369088 0
-0.157863 -0.339726 0
-0.141200 -0.307887 0
-0.124376 -0.274351 0
-0.107734 -0.239891 0
-0.091561 -0.205224 0
-0.076078 -0.170956 0
-0.061427 -0.137540 0
-0.047669 -0.105245 0
-0.034785 -0.074143 0
-0.022679 -0.044084 0
-0.011174 -0.014680 0
0.000000 0.000000 0
0.000000 0.000000 0
-0.024888 -0.007693 0
-0.047422 -0.015706 0
-0.066467 -0.023820 0
-0.081904 -0.032022 0
-0.094238 -0.040439 0
-0.104193 -0.049247 0
-0.112458 -0.058613 0
-0.119591 -0.068669 0
-0.126002 -0.079509 0
-0.131981 -0.091195 0
-0.137729 -0.103769 0
-0.143386 -0.117260 0
-0.149055 -0.131688 0
-0.154815 -0.147072 0
-0.160727 -0.163427 0
-0.166839 -0.180762 0
-0.173190 -0.199078 0
-0.179799 -0.218355 0
-0.186671 -0.238551 0
-0.193786 -0.259585 0
-0.201095 -0.281334 0
-0.208518 -0.303613 0
-0.215932 -0.326171 0
-0.223177 -0.348684 0
-0.230050 -0.370748 0
-0.236310 -0.391884 0
-0.241686 -0.411548 0
-0.245890 -0.429149 0
-0.248632 -0.444072 0
-0.249638 -0.455707 0
-0.248671 -0.463486 0
-0.245554 -0.466918 0
-0.240178 -0.465618 0
-0.232524 -0.459339 0
-0.222660 -0.447993 0
-0.210748 -0.431665 0
-0.197031 -0.410620 0
-0.181825 -0.385293 0
-0.165498 -0.356278 0
-0.148445 -0.324291 0
-0.131068 -0.290128 0
-0.113742 -0.254608 0
-0.096797 -0.218516 0
-0.080495 -0.182538 0
-0.065015 -0.147212 0
-0.050450 -0.112881 0