# vtk DataFile Version 2.0
generated by CFD-lab course output (written by Tobias Neckel) 
ASCII

DATASET STRUCTURED_GRID
DIMENSIONS  51 51 1 
POINTS 2601 float

0.000000 0.000000 0
0.020000 0.000000 0
0.040000 0.000000 0
0.060000 0.000000 0
0.080000 0.000000 0
0.100000 0.000000 0
0.120000 0.000000 0
0.140000 0.000000 0
0.160000 0.000000 0
0.180000 0.000000 0
0.200000 0.000000 0
0.220000 0.000000 0
0.240000 0.000000 0
0.260000 0.000000 0
0.280000 0.000000 0
0.300000 0.000000 0
0.320000 0.000000 0
0.340000 0.000000 0
0.360000 0.000000 0
0.380000 0.000000 0
0.400000 0.000000 0
0.420000 0.000000 0
0.440000 0.000000 0
0.460000 0.000000 0
0.480000 0.000000 0
0.500000 0.000000 0
0.520000 0.000000 0
0.540000 0.000000 0
0.560000 0.000000 0
0.580000 0.000000 0
0.600000 0.000000 0
0.620000 0.000000 0
0.640000 0.000000 0
0.660000 0.000000 0
0.680000 0.000000 0
0.700000 0.000000 0
0.720000 0.000000 0
0.740000 0.000000 0
0.760000 0.000000 0
0.780000 0.000000 0
0.800000 0.000000 0
0.820000 0.000000 0
0.840000 0.000000 0
0.860000 0.000000 0
0.880000 0.000000 0
0.900000 0.000000 0
0.920000 0.000000 0
0.940000 0.000000 0
0.960000 0.000000 0
0.980000 0.000000 0
1.000000 0.000000 0
0.000000 0.020000 0
0.020000 0.020000 0
0.040000 0.020000 0
0.060000 0.020000 0
0.080000 0.020000 0
0.100000 0.020000 0
0.120000 0.020000 0
0.140000 0.020000 0
0.160000 0.020000 0
0.180000 0.020000 0
0.200000 0.020000 0
0.220000 0.020000 0
0.240000 0.020000 0
0.260000 0.020000 0
0.280000 0.020000 0
0.300000 0.020000 0
0.320000 0.020000 0
0.340000 0.020000 0
0.360000 0.020000 0
0.380000 0.020000 0
0.400000 0.020000 0
0.420000 0.020000 0
0.440000 0.020000 0
0.460000 0.020000 0
0.480000 0.020000 0
0.500000 0.020000 0
0.520000 0.020000 0
0.540000 0.020000 0
0.560000 0.020000 0
0.580000 0.020000 0
0.600000 0.020000 0
0.620000 0.020000 0
0.640000 0.020000 0
0.660000 0.020000 0
0.680000 0.020000 0
0.700000 0.020000 0
0.720000 0.020000 0
0.740000 0.020000 0
0.760000 0.020000 0
0.780000 0.020000 0
0.800000 0.020000 0
0.820000 0.020000 0
0.840000 0.020000 0
0.860000 0.020000 0
0.880000 0.020000 0
0.900000 0.020000 0
0.920000 0.020000 0
0.940000 0.020000 0
0.960000 0.020000 0
0.980000 0.020000 0
1.000000 0.020000 0
0.000000 0.040000 0
0.020000 0.040000 0
0.040000 0.040000 0
0.060000 0.040000 0
0.080000 0.040000 0
0.100000 0.040000 0
0.120000 0.040000 0
0.140000 0.040000 0
0.160000 0.040000 0
0.180000 0.040000 0
0.200000 0.040000 0
0.220000 0.040000 0
0.240000 0.040000 0
0.260000 0.040000 0
0.280000 0.040000 0
0.300000 0.040000 0
0.320000 0.040000 0
0.340000 0.040000 0
0.360000 0.040000 0
0.380000 0.040000 0
0.400000 0.040000 0
0.420000 0.040000 0
0.440000 0.040000 0
0.460000 0.040000 0
0.480000 0.040000 0
0.500000 0.040000 0
0.520000 0.040000 0
0.540000 0.040000 0
0.560000 0.040000 0
0.580000 0.040000 0
0.600000 0.040000 0
0.620000 0.040000 0
0.640000 0.040000 0
0.660000 0.040000 0
0.680000 0.040000 0
0.700000 0.040000 0
0.720000 0.040000 0
0.740000 0.040000 0
0.760000 0.040000 0
0.780000 0.040000 0
0.800000 0.040000 0
0.820000 0.040000 0
0.840000 0.040000 0
0.860000 0.040000 0
0.880000 0.040000 0
0.900000 0.040000 0
0.920000 0.040000 0
0.940000 0.040000 0
0.960000 0.040000 0
0.980000 0.040000 0
1.000000 0.040000 0
0.000000 0.060000 0
0.020000 0.060000 0
0.040000 0.060000 0
0.060000 0.060000 0
0.080000 0.060000 0
0.100000 0.060000 0
0.120000 0.060000 0
0.140000 0.060000 0
0.160000 0.060000 0
0.180000 0.060000 0
0.200000 0.060000 0
0.220000 0.060000 0
0.240000 0.060000 0
0.260000 0.060000 0
0.280000 0.060000 0
0.300000 0.060000 0
0.320000 0.060000 0
0.340000 0.060000 0
0.360000 0.060000 0
0.380000 0.060000 0
0.400000 0.060000 0
0.420000 0.060000 0
0.440000 0.060000 0
0.460000 0.060000 0
0.480000 0.060000 0
0.500000 0.060000 0
0.520000 0.060000 0
0.540000 0.060000 0
0.560000 0.060000 0
0.580000 0.060000 0
0.600000 0.060000 0
0.620000 0.060000 0
0.640000 0.060000 0
0.660000 0.060000 0
0.680000 0.060000 0
0.700000 0.060000 0
0.720000 0.060000 0
0.740000 0.060000 0
0.760000 0.060000 0
0.780000 0.060000 0
0.800000 0.060000 0
0.820000 0.060000 0
0.840000 0.060000 0
0.860000 0.060000 0
0.880000 0.060000 0
0.900000 0.060000 0
0.920000 0.060000 0
0.940000 0.060000 0
0.960000 0.060000 0
0.980000 0.060000 0
1.000000 0.060000 0
0.000000 0.080000 0
0.020000 0.080000 0
0.040000 0.080000 0
0.060000 0.080000 0
0.080000 0.080000 0
0.100000 0.080000 0
0.120000 0.080000 0
0.140000 0.080000 0
0.160000 0.080000 0
0.180000 0.080000 0
0.200000 0.080000 0
0.220000 0.080000 0
0.240000 0.080000 0
0.260000 0.080000 0
0.280000 0.080000 0
0.300000 0.080000 0
0.320000 0.080000 0
0.340000 0.080000 0
0.360000 0.080000 0
0.380000 0.080000 0
0.400000 0.080000 0
0.420000 0.080000 0
0.440000 0.080000 0
0.460000 0.080000 0
0.480000 0.080000 0
0.500000 0.080000 0
0.520000 0.080000 0
0.540000 0.080000 0
0.560000 0.080000 0
0.580000 0.080000 0
0.600000 0.080000 0
0.620000 0.080000 0
0.640000 0.080000 0
0.660000 0.080000 0
0.680000 0.080000 0
0.700000 0.080000 0
0.720000 0.080000 0
0.740000 0.080000 0
0.760000 0.080000 0
0.780000 0.080000 0
0.800000 0.080000 0
0.820000 0.080000 0
0.840000 0.080000 0
0.860000 0.080000 0
0.880000 0.080000 0
0.900000 0.080000 0
0.920000 0.080000 0
0.940000 0.080000 0
0.960000 0.080000 0
0.980000 0.080000 0
1.000000 0.080000 0
0.000000 0.100000 0
0.020000 0.100000 0
0.040000 0.100000 0
0.060000 0.100000 0
0.080000 0.100000 0
0.100000 0.100000 0
0.120000 0.100000 0
0.140000 0.100000 0
0.160000 0.100000 0
0.180000 0.100000 0
0.200000 0.100000 0
0.220000 0.100000 0
0.240000 0.100000 0
0.260000 0.100000 0
0.280000 0.100000 0
0.300000 0.100000 0
0.320000 0.100000 0
0.340000 0.100000 0
0.360000 0.100000 0
0.380000 0.100000 0
0.400000 0.100000 0
0.420000 0.100000 0
0.440000 0.100000 0
0.460000 0.100000 0
0.480000 0.100000 0
0.500000 0.100000 0
0.520000 0.100000 0
0.540000 0.100000 0
0.560000 0.100000 0
0.580000 0.100000 0
0.600000 0.100000 0
0.620000 0.100000 0
0.640000 0.100000 0
0.660000 0.100000 0
0.680000 0.100000 0
0.700000 0.100000 0
0.720000 0.100000 0
0.740000 0.100000 0
0.760000 0.100000 0
0.780000 0.100000 0
0.800000 0.100000 0
0.820000 0.100000 0
0.840000 0.100000 0
0.860000 0.100000 0
0.880000 0.100000 0
0.900000 0.100000 0
0.920000 0.100000 0
0.940000 0.100000 0
0.960000 0.100000 0
0.980000 0.100000 0
1.000000 0.100000 0
0.000000 0.120000 0
0.020000 0.120000 0
0.040000 0.120000 0
0.060000 0.120000 0
0.080000 0.120000 0
0.100000 0.120000 0
0.120000 0.120000 0
0.140000 0.120000 0
0.160000 0.120000 0
0.180000 0.120000 0
0.200000 0.120000 0
0.220000 0.120000 0
0.240000 0.120000 0
0.260000 0.120000 0
0.280000 0.120000 0
0.300000 0.120000 0
0.320000 0.120000 0
0.340000 0.120000 0
0.360000 0.120000 0
0.380000 0.120000 0
0.400000 0.120000 0
0.420000 0.120000 0
0.440000 0.120000 0
0.460000 0.120000 0
0.480000 0.120000 0
0.500000 0.120000 0
0.520000 0.120000 0
0.540000 0.120000 0
0.560000 0.120000 0
0.580000 0.120000 0
0.600000 0.120000 0
0.620000 0.120000 0
0.640000 0.120000 0
0.660000 0.120000 0
0.680000 0.120000 0
0.700000 0.120000 0
0.720000 0.120000 0
0.740000 0.120000 0
0.760000 0.120000 0
0.780000 0.120000 0
0.800000 0.120000 0
0.820000 0.120000 0
0.840000 0.120000 0
0.860000 0.120000 0
0.880000 0.120000 0
0.900000 0.120000 0
0.920000 0.120000 0
0.940000 0.120000 0
0.960000 0.120000 0
0.980000 0.120000 0
1.000000 0.120000 0
0.000000 0.140000 0
0.020000 0.140000 0
0.040000 0.140000 0
0.060000 0.140000 0
0.080000 0.140000 0
0.100000 0.140000 0
0.120000 0.140000 0
0.140000 0.140000 0
0.160000 0.140000 0
0.180000 0.140000 0
0.200000 0.140000 0
0.220000 0.140000 0
0.240000 0.140000 0
0.260000 0.140000 0
0.280000 0.140000 0
0.300000 0.140000 0
0.320000 0.140000 0
0.340000 0.140000 0
0.360000 0.140000 0
0.380000 0.140000 0
0.400000 0.140000 0
0.420000 0.140000 0
0.440000 0.140000 0
0.460000 0.140000 0
0.480000 0.140000 0
0.500000 0.140000 0
0.520000 0.140000 0
0.540000 0.140000 0
0.560000 0.140000 0
0.580000 0.140000 0
0.600000 0.140000 0
0.620000 0.140000 0
0.640000 0.140000 0
0.660000 0.140000 0
0.680000 0.140000 0
0.700000 0.140000 0
0.720000 0.140000 0
0.740000 0.140000 0
0.760000 0.140000 0
0.780000 0.140000 0
0.800000 0.140000 0
0.820000 0.140000 0
0.840000 0.140000 0
0.860000 0.140000 0
0.880000 0.140000 0
0.900000 0.140000 0
0.920000 0.140000 0
0.940000 0.140000 0
0.960000 0.140000 0
0.980000 0.140000 0
1.000000 0.140000 0
0.000000 0.160000 0
0.020000 0.160000 0
0.040000 0.160000 0
0.060000 0.160000 0
0.080000 0.160000 0
0.100000 0.160000 0
0.120000 0.160000 0
0.140000 0.160000 0
0.160000 0.160000 0
0.180000 0.160000 0
0.200000 0.160000 0
0.220000 0.160000 0
0.240000 0.160000 0
0.260000 0.160000 0
0.280000 0.160000 0
0.300000 0.160000 0
0.320000 0.160000 0
0.340000 0.160000 0
0.360000 0.160000 0
0.380000 0.160000 0
0.400000 0.160000 0
0.420000 0.160000 0
0.440000 0.160000 0
0.460000 0.160000 0
0.480000 0.160000 0
0.500000 0.160000 0
0.520000 0.160000 0
0.540000 0.160000 0
0.560000 0.160000 0
0.580000 0.160000 0
0.600000 0.160000 0
0.620000 0.160000 0
0.640000 0.160000 0
0.660000 0.160000 0
0.680000 0.160000 0
0.700000 0.160000 0
0.720000 0.160000 0
0.740000 0.160000 0
0.760000 0.160000 0
0.780000 0.160000 0
0.800000 0.160000 0
0.820000 0.160000 0
0.840000 0.160000 0
0.860000 0.160000 0
0.880000 0.160000 0
0.900000 0.160000 0
0.920000 0.160000 0
0.940000 0.160000 0
0.960000 0.160000 0
0.980000 0.160000 0
1.000000 0.160000 0
0.000000 0.180000 0
0.020000 0.180000 0
0.040000 0.180000 0
0.060000 0.180000 0
0.080000 0.180000 0
0.100000 0.180000 0
0.120000 0.180000 0
0.140000 0.180000 0
0.160000 0.180000 0
0.180000 0.180000 0
0.200000 0.180000 0
0.220000 0.180000 0
0.240000 0.180000 0
0.260000 0.180000 0
0.280000 0.180000 0
0.300000 0.180000 0
0.320000 0.180000 0
0.340000 0.180000 0
0.360000 0.180000 0
0.380000 0.180000 0
0.400000 0.180000 0
0.420000 0.180000 0
0.440000 0.180000 0
0.460000 0.180000 0
0.480000 0.180000 0
0.500000 0.180000 0
0.520000 0.180000 0
0.540000 0.180000 0
0.560000 0.180000 0
0.580000 0.180000 0
0.600000 0.180000 0
0.620000 0.180000 0
[...]
POINT_DATA 2601 

VECTORS velocity float
0.000000 0.000000 0
-0.000000 0.000000 0
-0.000000 0.000000 0
-0.000000 0.000000 0
-0.000000 0.000000 0
-0.000000 0.000000 0
-0.000000 0.000000 0
-0.000000 0.000000 0
-0.000000 0.000000 0
-0.000000 0.000000 0
-0.000000 0.000000 0
-0.000000 0.000000 0
-0.000000 0.000000 0
-0.000000 0.000000 0
-0.000000 0.000000 0
-0.000000 0.000000 0
-0.000000 0.000000 0
-0.000000 0.000000 0
-0.000000 0.000000 0
-0.000000 0.000000 0
-0.000000 0.000000 0
-0.000000 0.000000 0
-0.000000 0.000000 0
-0.000000 0.000000 0
-0.000000 0.000000 0
-0.000000 0.000000 0
-0.000000 0.000000 0
-0.000000 0.000000 0
-0.000000 0.000000 0
-0.000000 0.000000 0
-0.000000 0.000000 0
-0.000000 0.000000 0
-0.000000 0.000000 0
-0.000000 0.000000 0
-0.000000 0.000000 0
-0.000000 0.000000 0
-0.000000 0.000000 0
-0.000000 0.000000 0
-0.000000 0.000000 0
-0.000000 0.000000 0
-0.000000 0.000000 0
-0.000000 0.000000 0
-0.000000 0.000000 0
-0.000000 0.000000 0
-0.000000 0.000000 0
-0.000000 0.000000 0
-0.000000 0.000000 0
-0.000000 0.000000 0
-0.000000 0.000000 0
-0.000000 0.000000 0
0.000000 0.000000 0
0.000000 0.000000 0
0.000024 0.000016 0
0.000047 0.000031 0
0.000071 0.000046 0
0.000095 0.000061 0
0.000119 0.000075 0
0.000144 0.000088 0
0.000169 0.000101 0
0.000195 0.000112 0
0.000221 0.000123 0
0.000248 0.000132 0
0.000275 0.000140 0
0.000303 0.000147 0
0.000332 0.000153 0
0.000362 0.000158 0
0.000392 0.000161 0
0.000422 0.000164 0
0.000454 0.000165 0
0.000485 0.000165 0
0.000518 0.000164 0
0.000550 0.000161 0
0.000583 0.000158 0
0.000615 0.000154 0
0.000648 0.000149 0
0.000680 0.000143 0
0.000711 0.000136 0
0.000742 0.000129 0
0.000771 0.000121 0
0.000799 0.000112 0
0.000824 0.000103 0
0.000847 0.000094 0
0.000867 0.000084 0
0.000884 0.000075 0
0.000896 0.000065 0
0.000903 0.000055 0
0.000904 0.000046 0
0.000900 0.000037 0
0.000888 0.000028 0
0.000869 0.000020 0
0.000841 0.000013 0
0.000805 0.000007 0
0.000759 0.000003 0
0.000705 -0.000001 0
0.000642 -0.000004 0
0.000569 -0.000006 0
0.000489 -0.000006 0
0.000401 -0.000006 0
0.000306 -0.000005 0
0.000207 -0.000003 0
0.000104 -0.000001 0
0.000000 0.000000 0
0.000000 0.000000 0
0.000047 0.000031 0
0.000094 0.000062 0
0.000142 0.000093 0
0.000190 0.000122 0
0.000238 0.000150 0
0.000288 0.000177 0
0.000338 0.000202 0
0.000389 0.000225 0
0.000442 0.000246 0
0.000495 0.000265 0
0.000550 0.000282 0
0.000606 0.000296 0
0.000664 0.000307 0
0.000723 0.000317 0
0.000783 0.000324 0
0.000845 0.000328 0
0.000907 0.000331 0
0.000971 0.000331 0
0.001035 0.000328 0
0.001100 0.000324 0
0.001166 0.000317 0
0.001231 0.000309 0
0.001297 0.000299 0
0.001361 0.000287 0
0.001424 0.000274 0
0.001486 0.000259 0
0.001545 0.000243 0
0.001600 0.000225 0
0.001652 0.000207 0
0.001698 0.000188 0
0.001739 0.000169 0
0.001772 0.000149 0
0.001797 0.000129 0
0.001811 0.000110 0
0.001815 0.000091 0
0.001806 0.000073 0
0.001783 0.000056 0
0.001745 0.000040 0
0.001690 0.000026 0
0.001618 0.000014 0
0.001528 0.000004 0
0.001419 -0.000004 0
0.001292 -0.000009 0
0.001147 -0.000012 0
0.000985 -0.000014 0
0.000808 -0.000013 0
0.000618 -0.000010 0
0.000418 -0.000007 0
0.000211 -0.000002 0
0.000000 0.000000 0
0.000000 0.000000 0
0.000070 0.000047 0
0.000141 0.000094 0
0.000212 0.000140 0
0.000284 0.000185 0
0.000357 0.000228 0
0.000431 0.000268 0
0.000506 0.000306 0
0.000583 0.000341 0
0.000661 0.000372 0
0.000742 0.000401 0
0.000824 0.000425 0
0.000909 0.000447 0
0.000995 0.000464 0
0.001084 0.000479 0
0.001174 0.000489 0
0.001266 0.000496 0
0.001361 0.000499 0
0.001456 0.000499 0
0.001553 0.000495 0
0.001651 0.000489 0
0.001750 0.000479 0
0.001849 0.000466 0
0.001947 0.000451 0
0.002045 0.000433 0
0.002140 0.000413 0
0.002233 0.000390 0
0.002322 0.000366 0
0.002407 0.000339 0
0.002485 0.000312 0
0.002556 0.000283 0
0.002618 0.000254 0
0.002669 0.000224 0
0.002708 0.000194 0
0.002732 0.000164 0
0.002739 0.000135 0
0.002727 0.000107 0
0.002694 0.000082 0
0.002638 0.000058 0
0.002557 0.000036 0
0.002450 0.000018 0
0.002314 0.000003 0
0.002151 -0.000009 0
0.001959 -0.000017 0
0.001740 -0.000021 0
0.001495 -0.000023 0
0.001227 -0.000021 0
0.000938 -0.000017 0
0.000635 -0.000011 0
0.000320 -0.000004 0
0.000000 0.000000 0
0.000000 0.000000 0
0.000094 0.000064 0
0.000187 0.000127 0
0.000282 0.000190 0
0.000377 0.000250 0
0.000474 0.000307 0
0.000573 0.000361 0
0.000673 0.000412 0
0.000775 0.000459 0
0.000880 0.000502 0
0.000987 0.000540 0
0.001097 0.000573 0
0.001210 0.000602 0
0.001325 0.000626 0
0.001443 0.000644 0
0.001564 0.000658 0
0.001688 0.000667 0
0.001814 0.000671 0
0.001942 0.000671 0
0.002072 0.000666 0
0.002203 0.000657 0
0.002336 0.000644 0
0.002468 0.000626 0
0.002601 0.000606 0
0.002732 0.000581 0
0.002860 0.000554 0
0.002986 0.000523 0
0.003107 0.000490 0
0.003221 0.000455 0
0.003328 0.000418 0
0.003425 0.000379 0
0.003510 0.000339 0
0.003581 0.000298 0
0.003635 0.000257 0
0.003670 0.000217 0
0.003682 0.000178 0
0.003669 0.000140 0
0.003628 0.000105 0
0.003556 0.000073 0
0.003449 0.000044 0
0.003307 0.000019 0
0.003128 -0.000001 0
0.002909 -0.000017 0
0.002652 -0.000028 0
0.002357 -0.000033 0
0.002026 -0.000035 0
0.001664 -0.000032 0
0.001274 -0.000025 0
0.000862 -0.000016 0
0.000435 -0.000006 0
0.000000 0.000000 0
0.000000 0.000000 0
0.000116 0.000081 0
0.000233 0.000162 0
0.000351 0.000241 0
0.000470 0.000317 0
0.000590 0.000390 0
0.000713 0.000459 0
0.000838 0.000523 0
0.000966 0.000583 0
0.001096 0.000637 0
0.001230 0.000685 0
0.001368 0.000727 0
0.001509 0.000763 0
0.001654 0.000792 0
0.001802 0.000816 0
0.001953 0.000833 0
0.002109 0.000844 0
0.002267 0.000849 0
0.002428 0.000848 0
0.002592 0.000842 0
0.002757 0.000830 0
0.002924 0.000813 0
0.003091 0.000791 0
0.003258 0.000764 0
0.003424 0.000733 0
0.003587 0.000698 0
0.003746 0.000659 0
0.003900 0.000617 0
0.004046 0.000572 0
0.004183 0.000525 0
0.004308 0.000475 0
0.004418 0.000425 0
0.004511 0.000373 0
0.004583 0.000321 0
0.004631 0.000269 0
0.004651 0.000219 0
0.004639 0.000171 0
0.004592 0.000126 0
0.004506 0.000084 0
0.004376 0.000047 0
0.004201 0.000016 0
0.003977 -0.000010 0
0.003703 -0.000030 0
0.003379 -0.000043 0
0.003007 -0.000050 0
0.002587 -0.000051 0
0.002126 -0.000046 0
0.001629 -0.000036 0
0.001102 -0.000023 0
0.000556 -0.000008 0
0.000000 0.000000 0
0.000000 0.000000 0
0.000139 0.000100 0
0.000278 0.000198 0
0.000419 0.000295 0
0.000561 0.000388 0
0.000705 0.000477 0
0.000852 0.000561 0
0.001001 0.000640 0
0.001154 0.000712 0
0.001311 0.000778 0
0.001472 0.000836 0
0.001637 0.000887 0
0.001806 0.000930 0
0.001980 0.000966 0
0.002159 0.000994 0
0.002342 0.001014 0
0.002529 0.001027 0
0.002720 0.001033 0
0.002915 0.001032 0
0.003113 0.001023 0
0.003313 0.001009 0
0.003515 0.000988 0
0.003719 0.000960 0
0.003922 0.000928 0
0.004123 0.000890 0
0.004322 0.000847 0
0.004517 0.000799 0
0.004705 0.000748 0
0.004885 0.000693 0
0.005054 0.000634 0
0.005209 0.000573 0
0.005347 0.000511 0
0.005464 0.000447 0
0.005557 0.000383 0
0.005622 0.000320 0
0.005653 0.000258 0
0.005645 0.000198 0
0.005595 0.000142 0
0.005497 0.000091 0
0.005346 0.000045 0
0.005139 0.000006 0
0.004872 -0.000026 0
0.004543 -0.000050 0
0.004151 -0.000066 0
0.003698 -0.000073 0
0.003186 -0.000073 0
0.002620 -0.000065 0
0.002009 -0.000051 0
0.001360 -0.000033 0
0.000687 -0.000011 0
0.000000 0.000000 0
0.000000 0.000000 0
0.000161 0.000119 0
0.000323 0.000237 0
0.000485 0.000352 0
0.000650 0.000463 0
0.000818 0.000570 0
0.000988 0.000670 0
0.001162 0.000763 0
0.001340 0.000849 0
0.001523 0.000927 0
0.001711 0.000996 0
0.001904 0.001056 0
0.002102 0.001107 0
0.002306 0.001149 0
0.002515 0.001181 0
0.002729 0.001205 0
0.002949 0.001220 0
0.003174 0.001226 0
0.003403 0.001223 0
0.003636 0.001213 0
0.003872 0.001195 0
0.004111 0.001169 0
0.004351 0.001137 0
0.004592 0.001097 0
0.004831 0.001052 0
0.005068 0.001000 0
0.005300 0.000943 0
0.005525 0.000882 0
0.005741 0.000816 0
0.005944 0.000746 0
0.006132 0.000673 0
0.006301 0.000598 0
0.006447 0.000521 0
0.006564 0.000444 0
0.006648 0.000368 0
0.006694 0.000293 0
0.006695 0.000221 0
0.006645 0.000153 0
0.006538 0.000091 0
0.006369 0.000036 0
0.006133 -0.000012 0
0.005823 -0.000050 0
0.005439 -0.000078 0
0.004977 -0.000096 0
0.004440 -0.000104 0
0.003830 -0.000101 0
0.003154 -0.000090 0
0.002420 -0.000070 0
0.001640 -0.000045 0
0.000828 -0.000015 0
0.000000 0.000000 0
0.000000 0.000000 0
0.000183 0.000140 0
0.000366 0.000278 0
0.000551 0.000414 0
0.000738 0.000544 0
0.000928 0.000669 0
0.001122 0.000786 0
0.001320 0.000895 0
0.001523 0.000995 0
0.001732 0.001085 0
0.001947 0.001165 0
0.002168 0.001235 0
0.002395 0.001294 0
0.002629 0.001342 0
0.002869 0.001379 0
0.003116 0.001406 0
0.003369 0.001422 0
0.003628 0.001428 0
0.003893 0.001425 0
0.004162 0.001412 0
0.004436 0.001390 0
0.004712 0.001359 0
0.004991 0.001320 0
0.005271 0.001274 0
0.005549 0.001220 0
0.005825 0.001160 0
0.006097 0.001093 0
0.006361 0.001020 0
0.006616 0.000943 0
0.006857 0.000861 0
0.007082 0.000775 0
0.007285 0.000686 0
0.007462 0.000596 0
0.007608 0.000504 0
0.007717 0.000414 0
0.007781 0.000325 0
0.007795 0.000239 0
0.007750 0.000158 0
0.007639 0.000084 0
0.007455 0.000018 0
0.007191 -0.000039 0
0.006842 -0.000084 0
0.006401 -0.000117 0
0.005869 -0.000137 0
0.005244 -0.000145 0
0.004530 -0.000139 0
0.003735 -0.000122 0
0.002869 -0.000095 0
0.001946 -0.000060 0
0.000984 -0.000021 0
0.000000 0.000000 0
0.000000 0.000000 0
0.000203 0.000163 0
0.000408 0.000323 0
0.000614 0.000480 0
0.000823 0.000631 0
0.001036 0.000776 0
0.001253 0.000911 0
0.001475 0.001037 0
0.001703 0.001152 0
0.001938 0.001256 0
0.002179 0.001347 0
0.002428 0.001427 0
0.002685 0.001494 0
0.002950 0.001548 0
0.003222 0.001589 0
0.003502 0.001619 0
0.003789 0.001636 0
0.004084 0.001642 0
0.004385 0.001637 0
0.004692 0.001621 0
0.005004 0.001595 0
0.005320 0.001559 0
0.005639 0.001513 0
0.005959 0.001459 0
0.006280 0.001397 0
0.006598 0.001326 0
0.006912 0.001249 0
0.007218 0.001164 0
0.007514 0.001074 0
0.007797 0.000979 0
0.008061 0.000879 0
0.008303 0.000775 0
0.008517 0.000670 0
0.008696 0.000563 0
0.008833 0.000456 0
0.008922 0.000352 0
0.008954 0.000251 0
0.008919 0.000155 0
0.008809 0.000068 0
0.008615 -0.000011 0
0.008327 -0.000077 0
0.007939 -0.000131 0
0.007443 -0.000169 0
0.006838 -0.000192 0
0.006121 -0.000198 0
0.005298 -0.000188 0
0.004375 -0.000164 0
0.003365 -0.000127 0
0.002284 -0.000080 0
0.001155 -0.000028 0
0.000000 0.000000 0
0.000000 0.000000 0
0.000224 0.000187 0
0.000448 0.000372 0
0.000675 0.000553 0
0.000906 0.000727 0
0.001140 0.000892 0
0.001380 0.001047 0
0.001626 0.001191 0
0.001879 0.001322 0
0.002139 0.001440 0
0.002408 0.001544 0
0.002686 0.001633 0
0.002972 0.001708 0
0.003268 0.001769 0
0.003573 0.001815 0
0.003887 0.001847 0
0.004210 0.001865 0
0.004541 0.001870 0
0.004880 0.001863 0
0.005226 0.001843 0
0.005578 0.001812 0
0.005936 0.001770 0
0.006297 0.001717 0
0.006660 0.001654 0
0.007025 0.001582 0
0.007387 0.001501 0
0.007746 0.001411 0
0.008098 0.001314 0
0.008439 0.001211 0
0.008767 0.001101 0
0.009075 0.000985 0
0.009360 0.000866 0
0.009615 0.000743 0
0.009832 0.000619 0
0.010005 0.000495 0
0.010124 0.000373 0
0.010179 0.000255 0
0.010161 0.000143 0
0.010058 0.000040 0
0.009858 -0.000052 0
0.009552 -0.000130 0
0.009128 -0.000193 0
0.008579 -0.000237 0
0.007899 -0.000262 0
0.007086 -0.000267 0
0.006145 -0.000252 0
0.005083 -0.000218 0
0.003915 -0.000168 0
0.002661 -0.000106 0
0.001346 -0.000036 0
0.000000 0.000000 0
0.000000 0.000000 0
0.000243 0.000215 0
0.000487 0.000426 0
0.000734 0.000633 0
0.000985 0.000831 0
0.001241 0.001020 0
0.001503 0.001197 0
0.001772 0.001360 0
0.002050 0.001508 0
0.002336 0.001641 0
0.002633 0.001757 0
0.002939 0.001857 0
0.003256 0.001940 0
0.003584 0.002007 0
0.003922 0.002057 0
0.004271 0.002091 0
0.004631 0.002110 0
0.005000 0.002114 0
0.005378 0.002104 0
0.005765 0.002080 0
0.006160 0.002043 0
0.006560 0.001993 0
0.006966 0.001932 0
0.007375 0.001860 0
0.007786 0.001777 0
0.008196 0.001684 0
0.008603 0.001582 0
0.009004 0.001472 0
0.009394 0.001353 0
0.009771 0.001227 0
0.010128 0.001095 0
0.010461 0.000958 0
0.010762 0.000817 0
0.011024 0.000674 0
0.011238 0.000530 0
0.011394 0.000389 0
0.011481 0.000251 0
0.011486 0.000120 0
0.011397 -0.000001 0
0.011199 -0.000109 0
0.010878 -0.000201 0
0.010423 -0.000274 0
0.009822 -0.000325 0
0.009066 -0.000352 0
0.008154 -0.000355 0
0.007087 -0.000333 0
0.005874 -0.000287 0
0.004531 -0.000221 0
0.003084 -0.000140 0
0.001562 -0.000048 0
0.000000 0.000000 0
0.000000 0.000000 0
0.000261 0.000245 0
0.000524 0.000486 0
0.000790 0.000722 0
0.001060 0.000947 0
0.001337 0.001161 0
0.001621 0.001361 0
0.001913 0.001545 0
0.002215 0.001712 0
0.002528 0.001861 0
0.002852 0.001990 0
0.003188 0.002101 0
0.003536 0.002192 0
0.003897 0.002265 0
0.004270 0.002319 0
0.004655 0.002355 0
0.005052 0.002373 0
0.005461 0.002375 0
0.005881 0.002361 0
0.006311 0.002332 0
0.006750 0.002289 0
0.007196 0.002232 0
0.007649 0.002161 0
0.008107 0.002079 0
0.008567 0.001984 0
0.009028 0.001879 0
0.009486 0.001763 0
0.009939 0.001637 0
0.010383 0.001502 0
0.010813 0.001359 0
0.011224 0.001208 0
0.011611 0.001052 0
0.011965 0.000891 0
0.012278 0.000726 0
0.012540 0.000561 0
0.012741 0.000397 0
0.012867 0.000237 0
0.012904 0.000085 0
0.012837 -0.000057 0
0.012648 -0.000184 0
0.012321 -0.000292 0
0.011840 -0.000377 0
0.011189 -0.000437 0
0.010359 -0.000467 0
0.009342 -0.000467 0
0.008140 -0.000436 0
0.006761 -0.000375 0
0.005226 -0.000289 0
0.003561 -0.000182 0
0.001805 -0.000062 0
0.000000 0.000000 0
0.000000 0.000000 0
0.000278 0.000279 0
0.000558 0.000553 0
0.000842 0.000820 0
0.001131 0.001077 0
0.001428 0.001318 0
0.001733 0.001544 0
0.002048 0.001751 0
0.002374 0.001937 0
0.002713 0.002103 0
0.003065 0.002247 0
0.003431 0.002368 0
0.003811 0.002468 0
0.004206 0.002546 0
0.004615 0.002604 0
0.005038 0.002641 0
0.005476 0.002658 0
0.005926 0.002657 0
0.006389 0.002639 0
0.006864 0.002604 0
0.007350 0.002552 0
0.007845 0.002486 0
0.008348 0.002406 0
0.008857 0.002311 0
0.009370 0.002204 0
0.009885 0.002085 0
0.010398 0.001954 0
0.010908 0.001811 0
0.011410 0.001659 0
0.011898 0.001497 0
0.012369 0.001326 0
0.012814 0.001148 0
0.013228 0.000964 0
0.013599 0.000776 0
0.013919 0.000586 0
0.014173 0.000397 0
0.014347 0.000212 0
0.014426 0.000034 0
0.014391 -0.000131 0
0.014221 -0.000280 0
0.013896 -0.000408 0
0.013396 -0.000508 0
0.012701 -0.000578 0
0.011795 -0.000612 0
0.010670 -0.000609 0
0.009323 -0.000566 0
0.007764 -0.000487 0
0.006014 -0.000375 0
0.004105 -0.000236 0
0.002083 -0.000081 0
0.000000 0.000000 0
0.000000 0.000000 0
0.000294 0.000317 0
0.000590 0.000629 0
0.000890 0.000932 0
0.001197 0.001221 0
0.001512 0.001495 0
0.001838 0.001748 0
0.002175 0.001980 0
0.002526 0.002188 0
0.002891 0.002371 0
0.003272 0.002530 0
0.003668 0.002663 0
0.004081 0.002771 0
0.004511 0.002854 0
0.004958 0.002914 0
0.005421 0.002951 0
0.005900 0.002967 0
0.006395 0.002962 0
0.006904 0.002938 0
0.007427 0.002895 0
0.007962 0.002835 0
0.008508 0.002759 0
0.009064 0.002667 0
0.009628 0.002560 0
0.010198 0.002439 0
0.010770 0.002304 0
0.011344 0.002156 0
0.011915 0.001996 0
0.012479 0.001824 0
0.013031 0.001642 0
0.013567 0.001449 0
0.014078 0.001247 0
0.014558 0.001038 0
0.014996 0.000824 0
0.015380 0.000606 0
0.015698 0.000388 0
0.015931 0.000174 0
0.016063 -0.000033 0
0.016071 -0.000227 0
0.015932 -0.000402 0
0.015620 -0.000553 0
0.015110 -0.000672 0
0.014376 -0.000755 0
0.013399 -0.000794 0
0.012162 -0.000787 0
0.010661 -0.000731 0
0.008904 -0.000628 0
0.006913 -0.000483 0
0.004727 -0.000305 0
0.002401 -0.000104 0
0.000000 0.000000 0
0.000000 0.000000 0
0.000308 0.000360 0
0.000618 0.000714 0
0.000933 0.001058 0
0.001256 0.001385 0
0.001589 0.001693 0
0.001934 0.001978 0
0.002293 0.002236 0
0.002668 0.002468 0
0.003060 0.002670 0
0.003470 0.002844 0
0.003898 0.002988 0
0.004346 0.003104 0
0.004813 0.003192 0
0.005299 0.003254 0
0.005804 0.003291 0
0.006327 0.003303 0
0.006868 0.003293 0
0.007426 0.003262 0
0.008000 0.003211 0
0.008588 0.003140 0
0.009189 0.003052 0
0.009802 0.002947 0
0.010424 0.002826 0
0.011054 0.002689 0
0.011689 0.002538 0
0.012327 0.002372 0
0.012963 0.002193 0
0.013595 0.002000 0
0.014217 0.001794 0
0.014824 0.001577 0
0.015408 0.001350 0
0.015962 0.001113 0
0.016474 0.000869 0
0.016934 0.000620 0
0.017324 0.000369 0
0.017629 0.000121 0
0.017826 -0.000119 0
0.017891 -0.000347 0
0.017796 -0.000554 0
0.017510 -0.000733 0
0.017002 -0.000876 0
0.016240 -0.000974 0
0.015195 -0.001021 0
0.013845 -0.001010 0
0.012180 -0.000938 0
0.010205 -0.000807 0
0.007944 -0.000621 0
0.005444 -0.000392 0
0.002769 -0.000134 0
0.000000 0.000000 0
0.000000 0.000000 0
0.000319 0.000409 0
0.000642 0.000812 0
0.000970 0.001201 0
0.001308 0.001572 0
0.001657 0.001918 0
0.002021 0.002237 0
0.002401 0.002526 0
0.002800 0.002782 0
0.003219 0.003005 0
0.003658 0.003194 0
0.004120 0.003350 0
0.004603 0.003473 0
0.005109 0.003566 0
0.005637 0.003628 0
0.006187 0.003662 0
0.006757 0.003670 0
0.007348 0.003653 0
0.007958 0.003613 0
0.008586 0.003552 0
0.009231 0.003470 0
0.009890 0.003368 0
0.010564 0.003249 0
0.011249 0.003112 0
0.011944 0.002958 0
0.012645 0.002788 0
0.013352 0.002603 0
0.014059 0.002402 0
0.014764 0.002186 0
0.015462 0.001957 0
0.016146 0.001713 0
0.016811 0.001457 0
0.017446 0.001189 0
0.018043 0.000912 0
0.018587 0.000628 0
0.019063 0.000340 0
0.019451 0.000053 0
0.019728 -0.000228 0
0.019865 -0.000494 0
0.019830 -0.000740 0
0.019587 -0.000954 0
0.019096 -0.001126 0
0.018317 -0.001246 0
0.017212 -0.001303 0
0.015750 -0.001289 0
0.013911 -0.001199 0
0.011698 -0.001033 0
0.009135 -0.000797 0
0.006274 -0.000503 0
0.003196 -0.000172 0
0.000000 0.000000 0
0.000000 0.000000 0
0.000328 0.000466 0
0.000660 0.000924 0
0.000999 0.001366 0
0.001350 0.001785 0
0.001714 0.002175 0
0.002095 0.002533 0
0.002496 0.002854 0
0.002919 0.003137 0
0.003365 0.003382 0
0.003836 0.003587 0
0.004331 0.003754 0
0.004853 0.003884 0
0.005400 0.003979 0
0.005972 0.004040 0
0.006569 0.004070 0
0.007191 0.004072 0
0.007835 0.004046 0
0.008501 0.003996 0
0.009187 0.003922 0
0.009892 0.003826 0
0.010615 0.003709 0
0.011354 0.003573 0
0.012107 0.003419 0
0.012871 0.003247 0
0.013645 0.003057 0
0.014425 0.002850 0
0.015209 0.002626 0
0.015993 0.002386 0
0.016772 0.002129 0
0.017541 0.001857 0
0.018293 0.001569 0
0.019020 0.001267 0
0.019710 0.000953 0
0.020350 0.000629 0
0.020923 0.000299 0
0.021409 -0.000033 0
0.021781 -0.000360 0
0.022007 -0.000674 0
0.022052 -0.000965 0
0.021871 -0.001222 0
0.021417 -0.001432 0
0.020638 -0.001580 0
0.019484 -0.001652 0
0.017912 -0.001637 0
0.015893 -0.001526 0
0.013419 -0.001318 0
0.010515 -0.001019 0
0.007242 -0.000645 0
0.003695 -0.000221 0
0.000000 0.000000 0
0.000000 0.000000 0
0.000334 0.000532 0
0.000672 0.001054 0
0.001020 0.001556 0
0.001380 0.002030 0
0.001757 0.002470 0
0.002155 0.002871 0
0.002576 0.003228 0
0.003023 0.003540 0
0.003497 0.003807 0
0.003999 0.004028 0
0.004531 0.004206 0
0.005093 0.004341 0
0.005684 0.004437 0
0.006304 0.004495 0
0.006953 0.004520 0
0.007628 0.004512 0
0.008330 0.004475 0
0.009057 0.004412 0
0.009806 0.004323 0
0.010577 0.004211 0
0.011368 0.004078 0
0.012177 0.003924 0
0.013002 0.003750 0
0.013842 0.003557 0
0.014693 0.003346 0
0.015553 0.003115 0
0.016419 0.002867 0
0.017289 0.002600 0
0.018156 0.002314 0
0.019017 0.002010 0
0.019865 0.001688 0
0.020691 0.001348 0
0.021484 0.000993 0
0.022231 0.000624 0
0.022915 0.000246 0
0.023514 -0.000138 0
0.023998 -0.000519 0
0.024335 -0.000889 0
0.024480 -0.001237 0
0.024385 -0.001547 0
0.023990 -0.001804 0
0.023232 -0.001989 0
0.022047 -0.002083 0
0.020374 -0.002070 0
0.018168 -0.001937 0
0.015411 -0.001679 0
0.012125 -0.001302 0
0.008376 -0.000827 0
0.004282 -0.000284 0
0.000000 0.000000 0
0.000000 0.000000 0
0.000336 0.000609 0
0.000677 0.001205 0
0.001028 0.001777 0
0.001396 0.002315 0
0.001784 0.002811 0
0.002197 0.003260 0
0.002637 0.003657 0
0.003107 0.004000 0
0.003610 0.004290 0
0.004146 0.004527 0
0.004717 0.004714 0
0.005322 0.004853 0
0.005961 0.004947 0
0.006633 0.005000 0
0.007337 0.005015 0