# vtk DataFile Version 2.0
generated by CFD-lab course output (written by Tobias Neckel) 
ASCII

DATASET STRUCTURED_GRID
DIMENSIONS  51 51 1 
POINTS 2601 float

0.000000 0.000000 0
0.020000 0.000000 0
0.040000 0.000000 0
0.060000 0.000000 0
0.080000 0.000000 0
0.100000 0.000000 0
0.120000 0.000000 0
0.140000 0.000000 0
0.160000 0.000000 0
0.180000 0.000000 0
0.200000 0.000000 0
0.220000 0.000000 0
0.240000 0.000000 0
0.260000 0.000000 0
0.280000 0.000000 0
0.300000 0.000000 0
0.320000 0.000000 0
0.340000 0.000000 0
0.360000 0.000000 0
0.380000 0.000000 0
0.400000 0.000000 0
0.420000 0.000000 0
0.440000 0.000000 0
0.460000 0.000000 0
0.480000 0.000000 0
0.500000 0.000000 0
0.520000 0.000000 0
0.540000 0.000000 0
0.560000 0.000000 0
0.580000 0.000000 0
0.600000 0.000000 0
0.620000 0.000000 0
0.640000 0.000000 0
0.660000 0.000000 0
0.680000 0.000000 0
0.700000 0.000000 0
0.720000 0.000000 0
0.740000 0.000000 0
0.760000 0.000000 0
0.780000 0.000000 0
0.800000 0.000000 0
0.820000 0.000000 0
0.840000 0.000000 0
0.860000 0.000000 0
0.880000 0.000000 0
0.900000 0.000000 0
0.920000 0.000000 0
0.940000 0.000000 0
0.960000 0.000000 0
0.980000 0.000000 0
1.000000 0.000000 0
0.000000 0.020000 0
0.020000 0.020000 0
0.040000 0.020000 0
0.060000 0.020000 0
0.080000 0.020000 0
0.100000 0.020000 0
0.120000 0.020000 0
0.140000 0.020000 0
0.160000 0.020000 0
0.180000 0.020000 0
0.200000 0.020000 0
0.220000 0.020000 0
0.240000 0.020000 0
0.260000 0.020000 0
0.280000 0.020000 0
0.300000 0.020000 0
0.320000 0.020000 0
0.340000 0.020000 0
0.360000 0.020000 0
0.380000 0.020000 0
0.400000 0.020000 0
0.420000 0.020000 0
0.440000 0.020000 0
0.460000 0.020000 0
0.480000 0.020000 0
0.500000 0.020000 0
0.520000 0.020000 0
0.540000 0.020000 0
0.560000 0.020000 0
0.580000 0.020000 0
0.600000 0.020000 0
0.620000 0.020000 0
0.640000 0.020000 0
0.660000 0.020000 0
0.680000 0.020000 0
0.700000 0.020000 0
0.720000 0.020000 0
0.740000 0.020000 0
0.760000 0.020000 0
0.780000 0.020000 0
0.800000 0.020000 0
0.820000 0.020000 0
0.840000 0.020000 0
0.860000 0.020000 0
0.880000 0.020000 0
0.900000 0.020000 0
0.920000 0.020000 0
0.940000 0.020000 0
0.960000 0.020000 0
0.980000 0.020000 0
1.000000 0.020000 0
0.000000 0.040000 0
0.020000 0.040000 0
0.040000 0.040000 0
0.060000 0.040000 0
0.080000 0.040000 0
0.100000 0.040000 0
0.120000 0.040000 0
0.140000 0.040000 0
0.160000 0.040000 0
0.180000 0.040000 0
0.200000 0.040000 0
0.220000 0.040000 0
0.240000 0.040000 0
0.260000 0.040000 0
0.280000 0.040000 0
0.300000 0.040000 0
0.320000 0.040000 0
0.340000 0.040000 0
0.360000 0.040000 0
0.380000 0.040000 0
0.400000 0.040000 0
0.420000 0.040000 0
0.440000 0.040000 0
0.460000 0.040000 0
0.480000 0.040000 0
0.500000 0.040000 0
0.520000 0.040000 0
0.540000 0.040000 0
0.560000 0.040000 0
0.580000 0.040000 0
0.600000 0.040000 0
0.620000 0.040000 0
0.640000 0.040000 0
0.660000 0.040000 0
0.680000 0.040000 0
0.700000 0.040000 0
0.720000 0.040000 0
0.740000 0.040000 0
0.760000 0.040000 0
0.780000 0.040000 0
0.800000 0.040000 0
0.820000 0.040000 0
0.840000 0.040000 0
0.860000 0.040000 0
0.880000 0.040000 0
0.900000 0.040000 0
0.920000 0.040000 0
0.940000 0.040000 0
0.960000 0.040000 0
0.980000 0.040000 0
1.000000 0.040000 0
0.000000 0.060000 0
0.020000 0.060000 0
0.040000 0.060000 0
0.060000 0.060000 0
0.080000 0.060000 0
0.100000 0.060000 0
0.120000 0.060000 0
0.140000 0.060000 0
0.160000 0.060000 0
0.180000 0.060000 0
0.200000 0.060000 0
0.220000 0.060000 0
0.240000 0.060000 0
0.260000 0.060000 0
0.280000 0.060000 0
0.300000 0.060000 0
0.320000 0.060000 0
0.340000 0.060000 0
0.360000 0.060000 0
0.380000 0.060000 0
0.400000 0.060000 0
0.420000 0.060000 0
0.440000 0.060000 0
0.460000 0.060000 0
0.480000 0.060000 0
0.500000 0.060000 0
0.520000 0.060000 0
0.540000 0.060000 0
0.560000 0.060000 0
0.580000 0.060000 0
0.600000 0.060000 0
0.620000 0.060000 0
0.640000 0.060000 0
0.660000 0.060000 0
0.680000 0.060000 0
0.700000 0.060000 0
0.720000 0.060000 0
0.740000 0.060000 0
0.760000 0.060000 0
0.780000 0.060000 0
0.800000 0.060000 0
0.820000 0.060000 0
0.840000 0.060000 0
0.860000 0.060000 0
0.880000 0.060000 0
0.900000 0.060000 0
0.920000 0.060000 0
0.940000 0.060000 0
0.960000 0.060000 0
0.980000 0.060000 0
1.000000 0.060000 0
0.000000 0.080000 0
0.020000 0.080000 0
0.040000 0.080000 0
0.060000 0.080000 0
0.080000 0.080000 0
0.100000 0.080000 0
0.120000 0.080000 0
0.140000 0.080000 0
0.160000 0.080000 0
0.180000 0.080000 0
0.200000 0.080000 0
0.220000 0.080000 0
0.240000 0.080000 0
0.260000 0.080000 0
0.280000 0.080000 0
0.300000 0.080000 0
0.320000 0.080000 0
0.340000 0.080000 0
0.360000 0.080000 0
0.380000 0.080000 0
0.400000 0.080000 0
0.420000 0.080000 0
0.440000 0.080000 0
0.460000 0.080000 0
0.480000 0.080000 0
0.500000 0.080000 0
0.520000 0.080000 0
0.540000 0.080000 0
0.560000 0.080000 0
0.580000 0.080000 0
0.600000 0.080000 0
0.620000 0.080000 0
0.640000 0.080000 0
0.660000 0.080000 0
0.680000 0.080000 0
0.700000 0.080000 0
0.720000 0.080000 0
0.740000 0.080000 0
0.760000 0.080000 0
0.780000 0.080000 0
0.800000 0.080000 0
0.820000 0.080000 0
0.840000 0.080000 0
0.860000 0.080000 0
0.880000 0.080000 0
0.900000 0.080000 0
0.920000 0.080000 0
0.940000 0.080000 0
0.960000 0.080000 0
0.980000 0.080000 0
1.000000 0.080000 0
0.000000 0.100000 0
0.020000 0.100000 0
0.040000 0.100000 0
0.060000 0.100000 0
0.080000 0.100000 0
0.100000 0.100000 0
0.120000 0.100000 0
0.140000 0.100000 0
0.160000 0.100000 0
0.180000 0.100000 0
0.200000 0.100000 0
0.220000 0.100000 0
0.240000 0.100000 0
0.260000 0.100000 0
0.280000 0.100000 0
0.300000 0.100000 0
0.320000 0.100000 0
0.340000 0.100000 0
0.360000 0.100000 0
0.380000 0.100000 0
0.400000 0.100000 0
0.420000 0.100000 0
0.440000 0.100000 0
0.460000 0.100000 0
0.480000 0.100000 0
0.500000 0.100000 0
0.520000 0.100000 0
0.540000 0.100000 0
0.560000 0.100000 0
0.580000 0.100000 0
0.600000 0.100000 0
0.620000 0.100000 0
0.640000 0.100000 0
0.660000 0.100000 0
0.680000 0.100000 0
0.700000 0.100000 0
0.720000 0.100000 0
0.740000 0.100000 0
0.760000 0.100000 0
0.780000 0.100000 0
0.800000 0.100000 0
0.820000 0.100000 0
0.840000 0.100000 0
0.860000 0.100000 0
0.880000 0.100000 0
0.900000 0.100000 0
0.920000 0.100000 0
0.940000 0.100000 0
0.960000 0.100000 0
0.980000 0.100000 0
1.000000 0.100000 0
0.000000 0.120000 0
0.020000 0.120000 0
0.040000 0.120000 0
0.060000 0.120000 0
0.080000 0.120000 0
0.100000 0.120000 0
0.120000 0.120000 0
0.140000 0.120000 0
0.160000 0.120000 0
0.180000 0.120000 0
0.200000 0.120000 0
0.220000 0.120000 0
0.240000 0.120000 0
0.260000 0.120000 0
0.280000 0.120000 0
0.300000 0.120000 0
0.320000 0.120000 0
0.340000 0.120000 0
0.360000 0.120000 0
0.380000 0.120000 0
0.400000 0.120000 0
0.420000 0.120000 0
0.440000 0.120000 0
0.460000 0.120000 0
0.480000 0.120000 0
0.500000 0.120000 0
0.520000 0.120000 0
0.540000 0.120000 0
0.560000 0.120000 0
0.580000 0.120000 0
0.600000 0.120000 0
0.620000 0.120000 0
0.640000 0.120000 0
0.660000 0.120000 0
0.680000 0.120000 0
0.700000 0.120000 0
0.720000 0.120000 0
0.740000 0.120000 0
0.760000 0.120000 0
0.780000 0.120000 0
0.800000 0.120000 0
0.820000 0.120000 0
0.840000 0.120000 0
0.860000 0.120000 0
0.880000 0.120000 0
0.900000 0.120000 0
0.920000 0.120000 0
0.940000 0.120000 0
0.960000 0.120000 0
0.980000 0.120000 0
1.000000 0.120000 0
0.000000 0.140000 0
0.020000 0.140000 0
0.040000 0.140000 0
0.060000 0.140000 0
0.080000 0.140000 0
0.100000 0.140000 0
0.120000 0.140000 0
0.140000 0.140000 0
0.160000 0.140000 0
0.180000 0.140000 0
0.200000 0.140000 0
0.220000 0.140000 0
0.240000 0.140000 0
0.260000 0.140000 0
0.280000 0.140000 0
0.300000 0.140000 0
0.320000 0.140000 0
0.340000 0.140000 0
0.360000 0.140000 0
0.380000 0.140000 0
0.400000 0.140000 0
0.420000 0.140000 0
0.440000 0.140000 0
0.460000 0.140000 0
0.480000 0.140000 0
0.500000 0.140000 0
0.520000 0.140000 0
0.540000 0.140000 0
0.560000 0.140000 0
0.580000 0.140000 0
0.600000 0.140000 0
0.620000 0.140000 0
0.640000 0.140000 0
0.660000 0.140000 0
0.680000 0.140000 0
0.700000 0.140000 0
0.720000 0.140000 0
0.740000 0.140000 0
0.760000 0.140000 0
0.780000 0.140000 0
0.800000 0.140000 0
0.820000 0.140000 0
0.840000 0.140000 0
0.860000 0.140000 0
0.880000 0.140000 0
0.900000 0.140000 0
0.920000 0.140000 0
0.940000 0.140000 0
0.960000 0.140000 0
0.980000 0.140000 0
1.000000 0.140000 0
0.000000 0.160000 0
0.020000 0.160000 0
0.040000 0.160000 0
0.060000 0.160000 0
0.080000 0.160000 0
0.100000 0.160000 0
0.120000 0.160000 0
0.140000 0.160000 0
0.160000 0.160000 0
0.180000 0.160000 0
0.200000 0.160000 0
0.220000 0.160000 0
0.240000 0.160000 0
0.260000 0.160000 0
0.280000 0.160000 0
0.300000 0.160000 0
0.320000 0.160000 0
0.340000 0.160000 0
0.360000 0.160000 0
0.380000 0.160000 0
0.400000 0.160000 0
0.420000 0.160000 0
0.440000 0.160000 0
0.460000 0.160000 0
0.480000 0.160000 0
0.500000 0.160000 0
0.520000 0.160000 0
0.540000 0.160000 0
0.560000 0.160000 0
0.580000 0.160000 0
0.600000 0.160000 0
0.620000 0.160000 0
0.640000 0.160000 0
0.660000 0.160000 0
0.680000 0.160000 0
0.700000 0.160000 0
0.720000 0.160000 0
0.740000 0.160000 0
0.760000 0.160000 0
0.780000 0.160000 0
0.800000 0.160000 0
0.820000 0.160000 0
0.840000 0.160000 0
0.860000 0.160000 0
0.880000 0.160000 0
0.900000 0.160000 0
0.920000 0.160000 0
0.940000 0.160000 0
0.960000 0.160000 0
0.980000 0.160000 0
1.000000 0.160000 0
0.000000 0.180000 0
0.020000 0.180000 0
0.040000 0.180000 0
0.060000 0.180000 0
0.080000 0.180000 0
0.100000 0.180000 0
0.120000 0.180000 0
0.140000 0.180000 0
0.160000 0.180000 0
0.180000 0.180000 0
0.200000 0.180000 0
0.220000 0.180000 0
0.240000 0.180000 0
0.260000 0.180000 0
0.280000 0.180000 0
0.300000 0.180000 0
0.320000 0.180000 0
0.340000 0.180000 0
0.360000 0.180000 0
0.380000 0.180000 0
0.400000 0.180000 0
0.420000 0.180000 0
0.440000 0.180000 0
0.460000 0.180000 0
0.480000 0.180000 0
0.500000 0.180000 0
0.520000 0.180000 0
0.540000 0.180000 0
0.560000 0.180000 0
0.580000 0.180000 0
0.600000 0.180000 0
0.620000 0.180000 0
[...]
POINT_DATA 2601 

VECTORS velocity float
0.000000 0.000000 0
0.000000 0.000000 0
0.000000 0.000000 0
0.000000 0.000000 0
0.000000 0.000000 0
0.000000 0.000000 0
0.000000 0.000000 0
0.000000 0.000000 0
0.000000 0.000000 0
0.000000 0.000000 0
0.000000 0.000000 0
0.000000 0.000000 0
0.000000 0.000000 0
0.000000 0.000000 0
0.000000 0.000000 0
0.000000 0.000000 0
0.000000 0.000000 0
0.000000 0.000000 0
0.000000 0.000000 0
0.000000 0.000000 0
0.000000 0.000000 0
0.000000 0.000000 0
0.000000 0.000000 0
0.000000 0.000000 0
0.000000 0.000000 0
0.000000 0.000000 0
0.000000 0.000000 0
0.000000 0.000000 0
0.000000 0.000000 0
0.000000 0.000000 0
0.000000 0.000000 0
0.000000 0.000000 0
0.000000 0.000000 0
0.000000 0.000000 0
0.000000 0.000000 0
0.000000 0.000000 0
0.000000 0.000000 0
0.000000 0.000000 0
0.000000 0.000000 0
0.000000 0.000000 0
0.000000 0.000000 0
0.000000 0.000000 0
0.000000 0.000000 0
0.000000 0.000000 0
0.000000 0.000000 0
0.000000 0.000000 0
0.000000 0.000000 0
0.000000 0.000000 0
0.000000 0.000000 0
0.000000 0.000000 0
0.000000 0.000000 0
0.000000 0.000000 0
0.000004 0.000005 0
0.000008 0.000010 0
0.000012 0.000014 0
0.000017 0.000018 0
0.000022 0.000021 0
0.000027 0.000023 0
0.000033 0.000025 0
0.000040 0.000025 0
0.000047 0.000024 0
0.000055 0.000022 0
0.000063 0.000018 0
0.000073 0.000013 0
0.000083 0.000006 0
0.000094 -0.000002 0
0.000106 -0.000012 0
0.000120 -0.000024 0
0.000134 -0.000038 0
0.000149 -0.000053 0
0.000165 -0.000070 0
0.000182 -0.000089 0
0.000200 -0.000110 0
0.000219 -0.000132 0
0.000239 -0.000156 0
0.000259 -0.000181 0
0.000280 -0.000207 0
0.000301 -0.000234 0
0.000323 -0.000261 0
0.000344 -0.000289 0
0.000365 -0.000316 0
0.000385 -0.000342 0
0.000404 -0.000367 0
0.000421 -0.000390 0
0.000437 -0.000410 0
0.000449 -0.000428 0
0.000459 -0.000441 0
0.000464 -0.000450 0
0.000466 -0.000453 0
0.000462 -0.000451 0
0.000453 -0.000443 0
0.000439 -0.000428 0
0.000418 -0.000406 0
0.000391 -0.000378 0
0.000358 -0.000343 0
0.000319 -0.000302 0
0.000275 -0.000256 0
0.000227 -0.000204 0
0.000174 -0.000149 0
0.000117 -0.000090 0
0.000059 -0.000030 0
0.000000 0.000000 0
0.000000 0.000000 0
0.000008 0.000010 0
0.000016 0.000020 0
0.000025 0.000029 0
0.000034 0.000036 0
0.000044 0.000043 0
0.000055 0.000048 0
0.000067 0.000051 0
0.000080 0.000052 0
0.000094 0.000050 0
0.000110 0.000046 0
0.000128 0.000038 0
0.000147 0.000028 0
0.000168 0.000014 0
0.000190 -0.000002 0
0.000215 -0.000023 0
0.000242 -0.000047 0
0.000270 -0.000074 0
0.000301 -0.000105 0
0.000333 -0.000140 0
0.000368 -0.000178 0
0.000404 -0.000219 0
0.000442 -0.000264 0
0.000482 -0.000311 0
0.000523 -0.000361 0
0.000566 -0.000413 0
0.000609 -0.000467 0
0.000652 -0.000522 0
0.000695 -0.000577 0
0.000738 -0.000632 0
0.000779 -0.000685 0
0.000817 -0.000735 0
0.000853 -0.000781 0
0.000884 -0.000822 0
0.000910 -0.000857 0
0.000929 -0.000884 0
0.000941 -0.000902 0
0.000944 -0.000909 0
0.000937 -0.000905 0
0.000919 -0.000889 0
0.000890 -0.000859 0
0.000848 -0.000816 0
0.000794 -0.000760 0
0.000728 -0.000690 0
0.000649 -0.000608 0
0.000560 -0.000514 0
0.000460 -0.000411 0
0.000353 -0.000299 0
0.000239 -0.000182 0
0.000121 -0.000061 0
0.000000 0.000000 0
0.000000 0.000000 0
0.000012 0.000015 0
0.000025 0.000030 0
0.000038 0.000044 0
0.000052 0.000057 0
0.000067 0.000067 0
0.000083 0.000075 0
0.000102 0.000079 0
0.000122 0.000081 0
0.000144 0.000079 0
0.000168 0.000072 0
0.000194 0.000061 0
0.000224 0.000046 0
0.000256 0.000026 0
0.000290 0.000001 0
0.000328 -0.000030 0
0.000369 -0.000066 0
0.000412 -0.000107 0
0.000459 -0.000154 0
0.000509 -0.000206 0
0.000561 -0.000263 0
0.000617 -0.000325 0
0.000675 -0.000392 0
0.000736 -0.000464 0
0.000799 -0.000540 0
0.000863 -0.000618 0
0.000929 -0.000700 0
0.000995 -0.000782 0
0.001062 -0.000866 0
0.001127 -0.000948 0
0.001190 -0.001028 0
0.001249 -0.001104 0
0.001304 -0.001174 0
0.001352 -0.001237 0
0.001392 -0.001290 0
0.001423 -0.001331 0
0.001442 -0.001359 0
0.001447 -0.001371 0
0.001437 -0.001366 0
0.001411 -0.001343 0
0.001367 -0.001299 0
0.001303 -0.001235 0
0.001221 -0.001150 0
0.001120 -0.001045 0
0.000999 -0.000921 0
0.000862 -0.000779 0
0.000710 -0.000623 0
0.000544 -0.000454 0
0.000368 -0.000276 0
0.000186 -0.000093 0
0.000000 0.000000 0
0.000000 0.000000 0
0.000017 0.000022 0
0.000034 0.000043 0
0.000052 0.000062 0
0.000071 0.000079 0
0.000091 0.000094 0
0.000114 0.000105 0
0.000138 0.000112 0
0.000165 0.000114 0
0.000195 0.000112 0
0.000228 0.000104 0
0.000265 0.000090 0
0.000305 0.000069 0
0.000348 0.000042 0
0.000396 0.000009 0
0.000447 -0.000032 0
0.000503 -0.000080 0
0.000562 -0.000135 0
0.000626 -0.000198 0
0.000694 -0.000267 0
0.000766 -0.000344 0
0.000842 -0.000428 0
0.000921 -0.000518 0
0.001004 -0.000614 0
0.001090 -0.000715 0
0.001178 -0.000821 0
0.001268 -0.000930 0
0.001359 -0.001041 0
0.001450 -0.001153 0
0.001540 -0.001264 0
0.001626 -0.001372 0
0.001708 -0.001475 0
0.001784 -0.001570 0
0.001851 -0.001656 0
0.001908 -0.001728 0
0.001951 -0.001785 0
0.001978 -0.001824 0
0.001987 -0.001842 0
0.001976 -0.001837 0
0.001941 -0.001807 0
0.001882 -0.001750 0
0.001797 -0.001665 0
0.001684 -0.001552 0
0.001546 -0.001411 0
0.001381 -0.001244 0
0.001192 -0.001054 0
0.000982 -0.000843 0
0.000753 -0.000615 0
0.000510 -0.000374 0
0.000257 -0.000125 0
0.000000 0.000000 0
0.000000 0.000000 0
0.000021 0.000029 0
0.000043 0.000056 0
0.000066 0.000082 0
0.000090 0.000105 0
0.000117 0.000125 0
0.000145 0.000140 0
0.000177 0.000150 0
0.000212 0.000154 0
0.000251 0.000151 0
0.000293 0.000141 0
0.000340 0.000124 0
0.000392 0.000099 0
0.000448 0.000066 0
0.000509 0.000024 0
0.000575 -0.000027 0
0.000647 -0.000087 0
0.000723 -0.000157 0
0.000805 -0.000235 0
0.000893 -0.000323 0
0.000986 -0.000419 0
0.001083 -0.000524 0
0.001186 -0.000638 0
0.001292 -0.000759 0
0.001403 -0.000886 0
0.001517 -0.001019 0
0.001633 -0.001157 0
0.001751 -0.001298 0
0.001869 -0.001440 0
0.001985 -0.001580 0
0.002097 -0.001717 0
0.002205 -0.001848 0
0.002304 -0.001970 0
0.002392 -0.002079 0
0.002467 -0.002173 0
0.002525 -0.002247 0
0.002563 -0.002299 0
0.002578 -0.002324 0
0.002565 -0.002321 0
0.002523 -0.002285 0
0.002449 -0.002215 0
0.002341 -0.002110 0
0.002197 -0.001969 0
0.002018 -0.001792 0
0.001805 -0.001582 0
0.001559 -0.001341 0
0.001285 -0.001073 0
0.000986 -0.000783 0
0.000668 -0.000476 0
0.000337 -0.000160 0
0.000000 0.000000 0
0.000000 0.000000 0
0.000026 0.000037 0
0.000053 0.000072 0
0.000081 0.000106 0
0.000111 0.000136 0
0.000144 0.000161 0
0.000180 0.000181 0
0.000219 0.000194 0
0.000262 0.000200 0
0.000310 0.000198 0
0.000363 0.000188 0
0.000421 0.000168 0
0.000485 0.000138 0
0.000555 0.000098 0
0.000631 0.000048 0
0.000713 -0.000013 0
0.000802 -0.000086 0
0.000898 -0.000169 0
0.001000 -0.000264 0
0.001108 -0.000370 0
0.001223 -0.000486 0
0.001345 -0.000613 0
0.001472 -0.000751 0
0.001605 -0.000897 0
0.001743 -0.001051 0
0.001885 -0.001213 0
0.002030 -0.001380 0
0.002177 -0.001551 0
0.002324 -0.001723 0
0.002469 -0.001895 0
0.002611 -0.002062 0
0.002746 -0.002222 0
0.002872 -0.002372 0
0.002985 -0.002507 0
0.003081 -0.002624 0
0.003157 -0.002718 0
0.003208 -0.002784 0
0.003230 -0.002819 0
0.003219 -0.002818 0
0.003170 -0.002779 0
0.003081 -0.002698 0
0.002949 -0.002573 0
0.002772 -0.002404 0
0.002549 -0.002191 0
0.002282 -0.001936 0
0.001974 -0.001643 0
0.001628 -0.001315 0
0.001250 -0.000960 0
0.000848 -0.000585 0
0.000428 -0.000196 0
0.000000 0.000000 0
0.000000 0.000000 0
0.000032 0.000046 0
0.000064 0.000091 0
0.000098 0.000133 0
0.000134 0.000171 0
0.000173 0.000204 0
0.000216 0.000229 0
0.000264 0.000247 0
0.000316 0.000256 0
0.000374 0.000256 0
0.000439 0.000245 0
0.000509 0.000222 0
0.000587 0.000188 0
0.000672 0.000142 0
0.000764 0.000084 0
0.000864 0.000012 0
0.000972 -0.000073 0
0.001088 -0.000171 0
0.001212 -0.000282 0
0.001344 -0.000406 0
0.001483 -0.000543 0
0.001631 -0.000693 0
0.001785 -0.000854 0
0.001947 -0.001027 0
0.002114 -0.001209 0
0.002287 -0.001399 0
0.002464 -0.001597 0
0.002643 -0.001798 0
0.002823 -0.002003 0
0.003001 -0.002206 0
0.003175 -0.002405 0
0.003342 -0.002597 0
0.003498 -0.002776 0
0.003639 -0.002940 0
0.003760 -0.003081 0
0.003858 -0.003197 0
0.003925 -0.003280 0
0.003958 -0.003327 0
0.003950 -0.003332 0
0.003896 -0.003291 0
0.003793 -0.003200 0
0.003636 -0.003057 0
0.003422 -0.002861 0
0.003152 -0.002611 0
0.002826 -0.002311 0
0.002447 -0.001963 0
0.002021 -0.001573 0
0.001553 -0.001149 0
0.001054 -0.000700 0
0.000532 -0.000235 0
0.000000 0.000000 0
0.000000 0.000000 0
0.000037 0.000058 0
0.000075 0.000114 0
0.000115 0.000166 0
0.000158 0.000213 0
0.000205 0.000254 0
0.000256 0.000287 0
0.000312 0.000310 0
0.000375 0.000323 0
0.000444 0.000325 0
0.000521 0.000314 0
0.000605 0.000290 0
0.000698 0.000252 0
0.000799 0.000200 0
0.000909 0.000133 0
0.001029 0.000051 0
0.001158 -0.000046 0
0.001296 -0.000159 0
0.001444 -0.000287 0
0.001602 -0.000430 0
0.001768 -0.000588 0
0.001944 -0.000760 0
0.002129 -0.000946 0
0.002322 -0.001145 0
0.002522 -0.001356 0
0.002729 -0.001576 0
0.002940 -0.001804 0
0.003155 -0.002038 0
0.003371 -0.002275 0
0.003586 -0.002512 0
0.003797 -0.002745 0
0.004000 -0.002969 0
0.004190 -0.003181 0
0.004364 -0.003374 0
0.004515 -0.003544 0
0.004637 -0.003683 0
0.004726 -0.003787 0
0.004772 -0.003848 0
0.004771 -0.003862 0
0.004714 -0.003822 0
0.004598 -0.003724 0
0.004415 -0.003564 0
0.004164 -0.003341 0
0.003842 -0.003055 0
0.003450 -0.002708 0
0.002992 -0.002303 0
0.002473 -0.001848 0
0.001903 -0.001352 0
0.001292 -0.000824 0
0.000653 -0.000277 0
0.000000 0.000000 0
0.000000 0.000000 0
0.000043 0.000071 0
0.000087 0.000140 0
0.000134 0.000205 0
0.000184 0.000264 0
0.000238 0.000315 0
0.000298 0.000356 0
0.000365 0.000386 0
0.000438 0.000404 0
0.000520 0.000409 0
0.000610 0.000399 0
0.000710 0.000373 0
0.000819 0.000332 0
0.000939 0.000274 0
0.001069 0.000199 0
0.001210 0.000107 0
0.001362 -0.000003 0
0.001525 -0.000131 0
0.001699 -0.000276 0
0.001885 -0.000438 0
0.002082 -0.000617 0
0.002289 -0.000813 0
0.002507 -0.001024 0
0.002735 -0.001250 0
0.002971 -0.001489 0
0.003215 -0.001740 0
0.003465 -0.002000 0
0.003720 -0.002267 0
0.003976 -0.002539 0
0.004232 -0.002810 0
0.004484 -0.003078 0
0.004727 -0.003337 0
0.004957 -0.003583 0
0.005168 -0.003809 0
0.005354 -0.004009 0
0.005507 -0.004176 0
0.005621 -0.004303 0
0.005686 -0.004383 0
0.005695 -0.004408 0
0.005639 -0.004372 0
0.005510 -0.004270 0
0.005303 -0.004096 0
0.005011 -0.003848 0
0.004633 -0.003526 0
0.004168 -0.003130 0
0.003620 -0.002667 0
0.002997 -0.002143 0
0.002309 -0.001569 0
0.001569 -0.000957 0
0.000794 -0.000322 0
0.000000 0.000000 0
0.000000 0.000000 0
0.000049 0.000087 0
0.000100 0.000171 0
0.000154 0.000251 0
0.000211 0.000323 0
0.000274 0.000386 0
0.000344 0.000438 0
0.000421 0.000477 0
0.000506 0.000501 0
0.000601 0.000510 0
0.000707 0.000502 0
0.000823 0.000476 0
0.000951 0.000431 0
0.001091 0.000367 0
0.001243 0.000284 0
0.001408 0.000182 0
0.001585 0.000059 0
0.001776 -0.000083 0
0.001980 -0.000245 0
0.002197 -0.000427 0
0.002426 -0.000628 0
0.002669 -0.000847 0
0.002923 -0.001084 0
0.003188 -0.001338 0
0.003465 -0.001606 0
0.003750 -0.001888 0
0.004043 -0.002181 0
0.004341 -0.002482 0
0.004643 -0.002789 0
0.004945 -0.003096 0
0.005242 -0.003401 0
0.005531 -0.003697 0
0.005806 -0.003979 0
0.006060 -0.004240 0
0.006287 -0.004474 0
0.006477 -0.004672 0
0.006622 -0.004826 0
0.006712 -0.004928 0
0.006736 -0.004969 0
0.006684 -0.004942 0
0.006547 -0.004839 0
0.006314 -0.004654 0
0.005981 -0.004383 0
0.005541 -0.004025 0
0.004996 -0.003582 0
0.004348 -0.003057 0
0.003605 -0.002461 0
0.002781 -0.001804 0
0.001892 -0.001102 0
0.000957 -0.000370 0
0.000000 0.000000 0
0.000000 0.000000 0
0.000056 0.000106 0
0.000114 0.000209 0
0.000174 0.000306 0
0.000240 0.000394 0
0.000312 0.000472 0
0.000392 0.000536 0
0.000481 0.000585 0
0.000579 0.000617 0
0.000689 0.000631 0
0.000811 0.000626 0
0.000946 0.000600 0
0.001095 0.000552 0
0.001257 0.000484 0
0.001433 0.000393 0
0.001625 0.000280 0
0.001831 0.000144 0
0.002052 -0.000013 0
0.002288 -0.000193 0
0.002539 -0.000394 0
0.002805 -0.000617 0
0.003086 -0.000860 0
0.003380 -0.001123 0
0.003688 -0.001404 0
0.004007 -0.001703 0
0.004338 -0.002016 0
0.004678 -0.002343 0
0.005025 -0.002679 0
0.005377 -0.003022 0
0.005729 -0.003367 0
0.006078 -0.003709 0
0.006419 -0.004044 0
0.006745 -0.004365 0
0.007049 -0.004665 0
0.007323 -0.004935 0
0.007557 -0.005168 0
0.007740 -0.005353 0
0.007861 -0.005482 0
0.007907 -0.005544 0
0.007865 -0.005530 0
0.007722 -0.005430 0
0.007467 -0.005238 0
0.007091 -0.004947 0
0.006586 -0.004556 0
0.005952 -0.004064 0
0.005191 -0.003477 0
0.004313 -0.002804 0
0.003332 -0.002059 0
0.002269 -0.001258 0
0.001149 -0.000423 0
0.000000 0.000000 0
0.000000 0.000000 0
0.000063 0.000128 0
0.000127 0.000253 0
0.000196 0.000371 0
0.000270 0.000478 0
0.000352 0.000573 0
0.000443 0.000652 0
0.000544 0.000714 0
0.000657 0.000756 0
0.000784 0.000776 0
0.000924 0.000774 0
0.001079 0.000749 0
0.001250 0.000700 0
0.001437 0.000626 0
0.001641 0.000528 0
0.001861 0.000404 0
0.002099 0.000256 0
0.002354 0.000083 0
0.002626 -0.000114 0
0.002915 -0.000336 0
0.003221 -0.000580 0
0.003543 -0.000848 0
0.003881 -0.001137 0
0.004235 -0.001447 0
0.004603 -0.001775 0
0.004984 -0.002121 0
0.005376 -0.002481 0
0.005776 -0.002853 0
0.006183 -0.003233 0
0.006591 -0.003616 0
0.006998 -0.003999 0
0.007396 -0.004375 0
0.007780 -0.004737 0
0.008141 -0.005077 0
0.008469 -0.005388 0
0.008755 -0.005660 0
0.008985 -0.005881 0
0.009145 -0.006042 0
0.009220 -0.006130 0
0.009194 -0.006135 0
0.009052 -0.006044 0
0.008778 -0.005849 0
0.008359 -0.005543 0
0.007786 -0.005120 0
0.007056 -0.004581 0
0.006169 -0.003929 0
0.005136 -0.003176 0
0.003975 -0.002336 0
0.002711 -0.001430 0
0.001374 -0.000481 0
0.000000 0.000000 0
0.000000 0.000000 0
0.000069 0.000155 0
0.000141 0.000305 0
0.000218 0.000448 0
0.000301 0.000578 0
0.000393 0.000693 0
0.000495 0.000790 0
0.000610 0.000867 0
0.000739 0.000920 0
0.000884 0.000949 0
0.001044 0.000952 0
0.001222 0.000928 0
0.001418 0.000877 0
0.001633 0.000799 0
0.001866 0.000693 0
0.002119 0.000559 0
0.002391 0.000398 0
0.002683 0.000209 0
0.002994 -0.000006 0
0.003325 -0.000247 0
0.003675 -0.000515 0
0.004044 -0.000806 0
0.004431 -0.001122 0
0.004835 -0.001460 0
0.005255 -0.001819 0
0.005691 -0.002197 0
0.006139 -0.002592 0
0.006599 -0.003000 0
0.007065 -0.003417 0
0.007536 -0.003841 0
0.008006 -0.004264 0
0.008469 -0.004682 0
0.008917 -0.005088 0
0.009343 -0.005473 0
0.009734 -0.005828 0
0.010080 -0.006142 0
0.010366 -0.006405 0
0.010574 -0.006603 0
0.010688 -0.006724 0
0.010688 -0.006754 0
0.010553 -0.006680 0
0.010265 -0.006489 0
0.009806 -0.006171 0
0.009163 -0.005721 0
0.008328 -0.005135 0
0.007302 -0.004418 0
0.006095 -0.003580 0
0.004726 -0.002639 0
0.003228 -0.001618 0
0.001638 -0.000545 0
0.000000 0.000000 0
0.000000 0.000000 0
0.000076 0.000186 0
0.000155 0.000367 0
0.000239 0.000539 0
0.000331 0.000696 0
0.000434 0.000836 0
0.000549 0.000954 0
0.000679 0.001047 0
0.000825 0.001114 0
0.000989 0.001153 0
0.001172 0.001162 0
0.001374 0.001141 0
0.001598 0.001089 0
0.001843 0.001007 0
0.002109 0.000893 0
0.002398 0.000749 0
0.002709 0.000574 0
0.003041 0.000370 0
0.003396 0.000137 0
0.003773 -0.000125 0
0.004171 -0.000415 0
0.004590 -0.000732 0
0.005030 -0.001074 0
0.005490 -0.001441 0
0.005967 -0.001831 0
0.006463 -0.002241 0
0.006973 -0.002670 0
0.007496 -0.003114 0
0.008029 -0.003570 0
0.008568 -0.004034 0
0.009108 -0.004500 0
0.009642 -0.004962 0
0.010163 -0.005413 0
0.010661 -0.005845 0
0.011125 -0.006248 0
0.011541 -0.006610 0
0.011892 -0.006919 0
0.012160 -0.007162 0
0.012324 -0.007323 0
0.012360 -0.007386 0
0.012243 -0.007335 0
0.011949 -0.007156 0
0.011454 -0.006835 0
0.010740 -0.006362 0
0.009795 -0.005732 0
0.008615 -0.004949 0
0.007210 -0.004023 0
0.005605 -0.002972 0
0.003834 -0.001825 0
0.001947 -0.000616 0
0.000000 0.000000 0
0.000000 0.000000 0
0.000082 0.000224 0
0.000168 0.000441 0
0.000260 0.000647 0
0.000361 0.000836 0
0.000475 0.001004 0
0.000603 0.001147 0
0.000749 0.001261 0
0.000913 0.001344 0
0.001098 0.001394 0
0.001306 0.001411 0
0.001536 0.001393 0
0.001790 0.001341 0
0.002068 0.001254 0
0.002371 0.001133 0
0.002699 0.000978 0
0.003052 0.000790 0
0.003430 0.000569 0
0.003833 0.000317 0
0.004260 0.000034 0
0.004711 -0.000278 0
0.005186 -0.000620 0
0.005683 -0.000989 0
0.006203 -0.001384 0
0.006743 -0.001804 0
0.007303 -0.002247 0
0.007881 -0.002710 0
0.008473 -0.003191 0
0.009078 -0.003686 0
0.009691 -0.004190 0
0.010307 -0.004699 0
0.010920 -0.005207 0
0.011521 -0.005706 0
0.012101 -0.006188 0
0.012647 -0.006642 0
0.013143 -0.007057 0
0.013572 -0.007419 0
0.013913 -0.007713 0
0.014139 -0.007922 0
0.014225 -0.008028 0
0.014138 -0.008011 0
0.013849 -0.007852 0
0.013326 -0.007535 0
0.012543 -0.007047 0
0.011482 -0.006378 0
0.010135 -0.005529 0
0.008510 -0.004509 0
0.006632 -0.003341 0
0.004546 -0.002056 0
0.002312 -0.000694 0
0.000000 0.000000 0
0.000000 0.000000 0
0.000088 0.000268 0
0.000179 0.000528 0
0.000279 0.000775 0
0.000389 0.001002 0
0.000514 0.001203 0
0.000656 0.001374 0
0.000818 0.001512 0
0.001002 0.001614 0
0.001211 0.001678 0
0.001444 0.001703 0
0.001705 0.001690 0
0.001992 0.001637 0
0.002308 0.001546 0
0.002652 0.001417 0
0.003023 0.001251 0
0.003423 0.001048 0
0.003851 0.000811 0
0.004306 0.000540 0
0.004788 0.000236 0
0.005297 -0.000099 0
0.005832 -0.000466 0
0.006393 -0.000862 0
0.006977 -0.001286 0
0.007586 -0.001736 0
0.008216 -0.002211 0
0.008866 -0.002708 0
0.009534 -0.003225 0
0.010217 -0.003759 0
0.010911 -0.004305 0
0.011610 -0.004858 0
0.012309 -0.005413 0
0.012999 -0.005961 0
0.013669 -0.006496 0
0.014306 -0.007005 0
0.014895 -0.007478 0
0.015414 -0.007899 0
0.015841 -0.008252 0
0.016146 -0.008518 0
0.016297 -0.008677 0
0.016256 -0.008704 0
0.015986 -0.008578 0
0.015446 -0.008277 0
0.014601 -0.007781 0
0.013421 -0.007078 0
0.011894 -0.006164 0
0.010023 -0.005048 0
0.007835 -0.003753 0
0.005383 -0.002314 0
0.002742 -0.000783 0
0.000000 0.000000 0
0.000000 0.000000 0
0.000092 0.000320 0
0.000189 0.000632 0
0.000294 0.000927 0
0.000413 0.001198 0
0.000549 0.001438 0
0.000705 0.001642 0
0.000885 0.001808 0
0.001090 0.001931 0
0.001324 0.002011 0
0.001587 0.002046 0
0.001880 0.002037 0
0.002205 0.001984 0
0.002562 0.001888 0
0.002950 0.001751 0
0.003370 0.001573 0
0.003821 0.001356 0
0.004304 0.001101 0
0.004817 0.000810 0
0.005360 0.000485 0
0.005932 0.000126 0
0.006533 -0.000266 0
0.007162 -0.000689 0
0.007818 -0.001141 0
0.008499 -0.001621 0
0.009206 -0.002128 0
0.009934 -0.002659 0
0.010684 -0.003213 0
0.011451 -0.003785 0
0.012232 -0.004372 0
0.013021 -0.004969 0
0.013814 -0.005572 0
0.014600 -0.006172 0
0.015370 -0.006762 0
0.016110 -0.007331 0
0.016802 -0.007866 0
0.017426 -0.008354 0
0.017954 -0.008774 0
0.018355 -0.009108 0
0.018590 -0.009330 0
0.018615 -0.009416 0
0.018383 -0.009336 0
0.017842 -0.009063 0
0.016944 -0.008572 0
0.015648 -0.007842 0
0.013929 -0.006867 0
0.011786 -0.005650 0
0.009245 -0.004216 0
0.006369 -0.002608 0
0.003249 -0.000883 0
0.000000 0.000000 0
0.000000 0.000000 0
0.000094 0.000383 0
0.000194 0.000755 0
0.000305 0.001107 0
0.000431 0.001429 0
0.000577 0.001715 0
0.000748 0.001959 0
0.000946 0.002156 0
0.001175 0.002303 0
0.001435 0.002401 0
0.001730 0.002447 0
0.002061 0.002442 0
0.002426 0.002389 0
0.002828 0.002288 0
0.003266 0.002141 0
0.003739 0.001950 0
0.004248 0.001717 0
0.004790 0.001444 0
0.005367 0.001133 0
0.005977 0.000785 0
0.006618 0.000401 0
0.007291 -0.000016 0
0.007994 -0.000465 0
0.008727 -0.000946 0
0.009488 -0.001456 0
0.010277 -0.001994 0
0.011090 -0.002559 0
0.011927 -0.003148 0
0.012784 -0.003758 0
0.013659 -0.004386 0
0.014546 -0.005028 0
0.015439 -0.005680 0
0.016331 -0.006333 0
0.017210 -0.006981 0
0.018063 -0.007613 0
0.018873 -0.008217 0
0.019615 -0.008777 0
0.020262 -0.009274 0
0.020778 -0.009687 0
0.021119 -0.009987 0
0.021233 -0.010146 0
0.021062 -0.010129 0
0.020541 -0.009901 0
0.019607 -0.009428 0
0.018201 -0.008683 0
0.016284 -0.007650 0
0.013842 -0.006330 0
0.010901 -0.004745 0
0.007533 -0.002944 0
0.003850 -0.000999 0