# vtk DataFile Version 2.0
generated by CFD-lab course output (written by Tobias Neckel) 
ASCII

DATASET STRUCTURED_GRID
DIMENSIONS  51 51 1 
POINTS 2601 float

0.000000 0.000000 0
0.020000 0.000000 0
0.040000 0.000000 0
0.060000 0.000000 0
0.080000 0.000000 0
0.100000 0.000000 0
0.120000 0.000000 0
0.140000 0.000000 0
0.160000 0.000000 0
0.180000 0.000000 0
0.200000 0.000000 0
0.220000 0.000000 0
0.240000 0.000000 0
0.260000 0.000000 0
0.280000 0.000000 0
0.300000 0.000000 0
0.320000 0.000000 0
0.340000 0.000000 0
0.360000 0.000000 0
0.380000 0.000000 0
0.400000 0.000000 0
0.420000 0.000000 0
0.440000 0.000000 0
0.460000 0.000000 0
0.480000 0.000000 0
0.500000 0.000000 0
0.520000 0.000000 0
0.540000 0.000000 0
0.560000 0.000000 0
0.580000 0.000000 0
0.600000 0.000000 0
0.620000 0.000000 0
0.640000 0.000000 0
0.660000 0.000000 0
0.680000 0.000000 0
0.700000 0.000000 0
0.720000 0.000000 0
0.740000 0.000000 0
0.760000 0.000000 0
0.780000 0.000000 0
0.800000 0.000000 0
0.820000 0.000000 0
0.840000 0.000000 0
0.860000 0.000000 0
0.880000 0.000000 0
0.900000 0.000000 0
0.920000 0.000000 0
0.940000 0.000000 0
0.960000 0.000000 0
0.980000 0.000000 0
1.000000 0.000000 0
0.000000 0.020000 0
0.020000 0.020000 0
0.040000 0.020000 0
0.060000 0.020000 0
0.080000 0.020000 0
0.100000 0.020000 0
0.120000 0.020000 0
0.140000 0.020000 0
0.160000 0.020000 0
0.180000 0.020000 0
0.200000 0.020000 0
0.220000 0.020000 0
0.240000 0.020000 0
0.260000 0.020000 0
0.280000 0.020000 0
0.300000 0.020000 0
0.320000 0.020000 0
0.340000 0.020000 0
0.360000 0.020000 0
0.380000 0.020000 0
0.400000 0.020000 0
0.420000 0.020000 0
0.440000 0.020000 0
0.460000 0.020000 0
0.480000 0.020000 0
0.500000 0.020000 0
0.520000 0.020000 0
0.540000 0.020000 0
0.560000 0.020000 0
0.580000 0.020000 0
0.600000 0.020000 0
0.620000 0.020000 0
0.640000 0.020000 0
0.660000 0.020000 0
0.680000 0.020000 0
0.700000 0.020000 0
0.720000 0.020000 0
0.740000 0.020000 0
0.760000 0.020000 0
0.780000 0.020000 0
0.800000 0.020000 0
0.820000 0.020000 0
0.840000 0.020000 0
0.860000 0.020000 0
0.880000 0.020000 0
0.900000 0.020000 0
0.920000 0.020000 0
0.940000 0.020000 0
0.960000 0.020000 0
0.980000 0.020000 0
1.000000 0.020000 0
0.000000 0.040000 0
0.020000 0.040000 0
0.040000 0.040000 0
0.060000 0.040000 0
0.080000 0.040000 0
0.100000 0.040000 0
0.120000 0.040000 0
0.140000 0.040000 0
0.160000 0.040000 0
0.180000 0.040000 0
0.200000 0.040000 0
0.220000 0.040000 0
0.240000 0.040000 0
0.260000 0.040000 0
0.280000 0.040000 0
0.300000 0.040000 0
0.320000 0.040000 0
0.340000 0.040000 0
0.360000 0.040000 0
0.380000 0.040000 0
0.400000 0.040000 0
0.420000 0.040000 0
0.440000 0.040000 0
0.460000 0.040000 0
0.480000 0.040000 0
0.500000 0.040000 0
0.520000 0.040000 0
0.540000 0.040000 0
0.560000 0.040000 0
0.580000 0.040000 0
0.600000 0.040000 0
0.620000 0.040000 0
0.640000 0.040000 0
0.660000 0.040000 0
0.680000 0.040000 0
0.700000 0.040000 0
0.720000 0.040000 0
0.740000 0.040000 0
0.760000 0.040000 0
0.780000 0.040000 0
0.800000 0.040000 0
0.820000 0.040000 0
0.840000 0.040000 0
0.860000 0.040000 0
0.880000 0.040000 0
0.900000 0.040000 0
0.920000 0.040000 0
0.940000 0.040000 0
0.960000 0.040000 0
0.980000 0.040000 0
1.000000 0.040000 0
0.000000 0.060000 0
0.020000 0.060000 0
0.040000 0.060000 0
0.060000 0.060000 0
0.080000 0.060000 0
0.100000 0.060000 0
0.120000 0.060000 0
0.140000 0.060000 0
0.160000 0.060000 0
0.180000 0.060000 0
0.200000 0.060000 0
0.220000 0.060000 0
0.240000 0.060000 0
0.260000 0.060000 0
0.280000 0.060000 0
0.300000 0.060000 0
0.320000 0.060000 0
0.340000 0.060000 0
0.360000 0.060000 0
0.380000 0.060000 0
0.400000 0.060000 0
0.420000 0.060000 0
0.440000 0.060000 0
0.460000 0.060000 0
0.480000 0.060000 0
0.500000 0.060000 0
0.520000 0.060000 0
0.540000 0.060000 0
0.560000 0.060000 0
0.580000 0.060000 0
0.600000 0.060000 0
0.620000 0.060000 0
0.640000 0.060000 0
0.660000 0.060000 0
0.680000 0.060000 0
0.700000 0.060000 0
0.720000 0.060000 0
0.740000 0.060000 0
0.760000 0.060000 0
0.780000 0.060000 0
0.800000 0.060000 0
0.820000 0.060000 0
0.840000 0.060000 0
0.860000 0.060000 0
0.880000 0.060000 0
0.900000 0.060000 0
0.920000 0.060000 0
0.940000 0.060000 0
0.960000 0.060000 0
0.980000 0.060000 0
1.000000 0.060000 0
0.000000 0.080000 0
0.020000 0.080000 0
0.040000 0.080000 0
0.060000 0.080000 0
0.080000 0.080000 0
0.100000 0.080000 0
0.120000 0.080000 0
0.140000 0.080000 0
0.160000 0.080000 0
0.180000 0.080000 0
0.200000 0.080000 0
0.220000 0.080000 0
0.240000 0.080000 0
0.260000 0.080000 0
0.280000 0.080000 0
0.300000 0.080000 0
0.320000 0.080000 0
0.340000 0.080000 0
0.360000 0.080000 0
0.380000 0.080000 0
0.400000 0.080000 0
0.420000 0.080000 0
0.440000 0.080000 0
0.460000 0.080000 0
0.480000 0.080000 0
0.500000 0.080000 0
0.520000 0.080000 0
0.540000 0.080000 0
0.560000 0.080000 0
0.580000 0.080000 0
0.600000 0.080000 0
0.620000 0.080000 0
0.640000 0.080000 0
0.660000 0.080000 0
0.680000 0.080000 0
0.700000 0.080000 0
0.720000 0.080000 0
0.740000 0.080000 0
0.760000 0.080000 0
0.780000 0.080000 0
0.800000 0.080000 0
0.820000 0.080000 0
0.840000 0.080000 0
0.860000 0.080000 0
0.880000 0.080000 0
0.900000 0.080000 0
0.920000 0.080000 0
0.940000 0.080000 0
0.960000 0.080000 0
0.980000 0.080000 0
1.000000 0.080000 0
0.000000 0.100000 0
0.020000 0.100000 0
0.040000 0.100000 0
0.060000 0.100000 0
0.080000 0.100000 0
0.100000 0.100000 0
0.120000 0.100000 0
0.140000 0.100000 0
0.160000 0.100000 0
0.180000 0.100000 0
0.200000 0.100000 0
0.220000 0.100000 0
0.240000 0.100000 0
0.260000 0.100000 0
0.280000 0.100000 0
0.300000 0.100000 0
0.320000 0.100000 0
0.340000 0.100000 0
0.360000 0.100000 0
0.380000 0.100000 0
0.400000 0.100000 0
0.420000 0.100000 0
0.440000 0.100000 0
0.460000 0.100000 0
0.480000 0.100000 0
0.500000 0.100000 0
0.520000 0.100000 0
0.540000 0.100000 0
0.560000 0.100000 0
0.580000 0.100000 0
0.600000 0.100000 0
0.620000 0.100000 0
0.640000 0.100000 0
0.660000 0.100000 0
0.680000 0.100000 0
0.700000 0.100000 0
0.720000 0.100000 0
0.740000 0.100000 0
0.760000 0.100000 0
0.780000 0.100000 0
0.800000 0.100000 0
0.820000 0.100000 0
0.840000 0.100000 0
0.860000 0.100000 0
0.880000 0.100000 0
0.900000 0.100000 0
0.920000 0.100000 0
0.940000 0.100000 0
0.960000 0.100000 0
0.980000 0.100000 0
1.000000 0.100000 0
0.000000 0.120000 0
0.020000 0.120000 0
0.040000 0.120000 0
0.060000 0.120000 0
0.080000 0.120000 0
0.100000 0.120000 0
0.120000 0.120000 0
0.140000 0.120000 0
0.160000 0.120000 0
0.180000 0.120000 0
0.200000 0.120000 0
0.220000 0.120000 0
0.240000 0.120000 0
0.260000 0.120000 0
0.280000 0.120000 0
0.300000 0.120000 0
0.320000 0.120000 0
0.340000 0.120000 0
0.360000 0.120000 0
0.380000 0.120000 0
0.400000 0.120000 0
0.420000 0.120000 0
0.440000 0.120000 0
0.460000 0.120000 0
0.480000 0.120000 0
0.500000 0.120000 0
0.520000 0.120000 0
0.540000 0.120000 0
0.560000 0.120000 0
0.580000 0.120000 0
0.600000 0.120000 0
0.620000 0.120000 0
0.640000 0.120000 0
0.660000 0.120000 0
0.680000 0.120000 0
0.700000 0.120000 0
0.720000 0.120000 0
0.740000 0.120000 0
0.760000 0.120000 0
0.780000 0.120000 0
0.800000 0.120000 0
0.820000 0.120000 0
0.840000 0.120000 0
0.860000 0.120000 0
0.880000 0.120000 0
0.900000 0.120000 0
0.920000 0.120000 0
0.940000 0.120000 0
0.960000 0.120000 0
0.980000 0.120000 0
1.000000 0.120000 0
0.000000 0.140000 0
0.020000 0.140000 0
0.040000 0.140000 0
0.060000 0.140000 0
0.080000 0.140000 0
0.100000 0.140000 0
0.120000 0.140000 0
0.140000 0.140000 0
0.160000 0.140000 0
0.180000 0.140000 0
0.200000 0.140000 0
0.220000 0.140000 0
0.240000 0.140000 0
0.260000 0.140000 0
0.280000 0.140000 0
0.300000 0.140000 0
0.320000 0.140000 0
0.340000 0.140000 0
0.360000 0.140000 0
0.380000 0.140000 0
0.400000 0.140000 0
0.420000 0.140000 0
0.440000 0.140000 0
0.460000 0.140000 0
0.480000 0.140000 0
0.500000 0.140000 0
0.520000 0.140000 0
0.540000 0.140000 0
0.560000 0.140000 0
0.580000 0.140000 0
0.600000 0.140000 0
0.620000 0.140000 0
0.640000 0.140000 0
0.660000 0.140000 0
0.680000 0.140000 0
0.700000 0.140000 0
0.720000 0.140000 0
0.740000 0.140000 0
0.760000 0.140000 0
0.780000 0.140000 0
0.800000 0.140000 0
0.820000 0.140000 0
0.840000 0.140000 0
0.860000 0.140000 0
0.880000 0.140000 0
0.900000 0.140000 0
0.920000 0.140000 0
0.940000 0.140000 0
0.960000 0.140000 0
0.980000 0.140000 0
1.000000 0.140000 0
0.000000 0.160000 0
0.020000 0.160000 0
0.040000 0.160000 0
0.060000 0.160000 0
0.080000 0.160000 0
0.100000 0.160000 0
0.120000 0.160000 0
0.140000 0.160000 0
0.160000 0.160000 0
0.180000 0.160000 0
0.200000 0.160000 0
0.220000 0.160000 0
0.240000 0.160000 0
0.260000 0.160000 0
0.280000 0.160000 0
0.300000 0.160000 0
0.320000 0.160000 0
0.340000 0.160000 0
0.360000 0.160000 0
0.380000 0.160000 0
0.400000 0.160000 0
0.420000 0.160000 0
0.440000 0.160000 0
0.460000 0.160000 0
0.480000 0.160000 0
0.500000 0.160000 0
0.520000 0.160000 0
0.540000 0.160000 0
0.560000 0.160000 0
0.580000 0.160000 0
0.600000 0.160000 0
0.620000 0.160000 0
0.640000 0.160000 0
0.660000 0.160000 0
0.680000 0.160000 0
0.700000 0.160000 0
0.720000 0.160000 0
0.740000 0.160000 0
0.760000 0.160000 0
0.780000 0.160000 0
0.800000 0.160000 0
0.820000 0.160000 0
0.840000 0.160000 0
0.860000 0.160000 0
0.880000 0.160000 0
0.900000 0.160000 0
0.920000 0.160000 0
0.940000 0.160000 0
0.960000 0.160000 0
0.980000 0.160000 0
1.000000 0.160000 0
0.000000 0.180000 0
0.020000 0.180000 0
0.040000 0.180000 0
0.060000 0.180000 0
0.080000 0.180000 0
0.100000 0.180000 0
0.120000 0.180000 0
0.140000 0.180000 0
0.160000 0.180000 0
0.180000 0.180000 0
0.200000 0.180000 0
0.220000 0.180000 0
0.240000 0.180000 0
0.260000 0.180000 0
0.280000 0.180000 0
0.300000 0.180000 0
0.320000 0.180000 0
0.340000 0.180000 0
0.360000 0.180000 0
0.380000 0.180000 0
0.400000 0.180000 0
0.420000 0.180000 0
0.440000 0.180000 0
0.460000 0.180000 0
0.480000 0.180000 0
0.500000 0.180000 0
0.520000 0.180000 0
0.540000 0.180000 0
0.560000 0.180000 0
0.580000 0.180000 0
0.600000 0.180000 0
0.620000 0.180000 0
[...]
POINT_DATA 2601 

VECTORS velocity float
0.000000 0.000000 0
0.000000 0.000000 0
0.000000 0.000000 0
0.000000 0.000000 0
0.000000 0.000000 0
0.000000 0.000000 0
0.000000 0.000000 0
0.000000 0.000000 0
0.000000 0.000000 0
0.000000 0.000000 0
0.000000 0.000000 0
0.000000 0.000000 0
0.000000 0.000000 0
0.000000 0.000000 0
0.000000 0.000000 0
0.000000 0.000000 0
0.000000 0.000000 0
0.000000 0.000000 0
0.000000 0.000000 0
0.000000 0.000000 0
0.000000 0.000000 0
0.000000 0.000000 0
0.000000 0.000000 0
0.000000 0.000000 0
0.000000 0.000000 0
0.000000 0.000000 0
0.000000 0.000000 0
0.000000 0.000000 0
0.000000 0.000000 0
0.000000 0.000000 0
0.000000 0.000000 0
0.000000 0.000000 0
0.000000 0.000000 0
-0.000000 0.000000 0
-0.000000 0.000000 0
-0.000000 0.000000 0
-0.000000 0.000000 0
-0.000000 0.000000 0
-0.000000 0.000000 0
-0.000000 0.000000 0
-0.000000 0.000000 0
-0.000000 0.000000 0
-0.000000 0.000000 0
-0.000000 0.000000 0
-0.000000 0.000000 0
-0.000000 0.000000 0
-0.000000 0.000000 0
-0.000000 0.000000 0
-0.000000 0.000000 0
-0.000000 0.000000 0
0.000000 0.000000 0
0.000000 0.000000 0
0.000023 0.000014 0
0.000047 0.000028 0
0.000070 0.000042 0
0.000094 0.000055 0
0.000118 0.000068 0
0.000143 0.000080 0
0.000168 0.000091 0
0.000194 0.000102 0
0.000220 0.000111 0
0.000247 0.000119 0
0.000274 0.000126 0
0.000302 0.000132 0
0.000331 0.000137 0
0.000361 0.000140 0
0.000391 0.000142 0
0.000422 0.000144 0
0.000453 0.000144 0
0.000485 0.000143 0
0.000518 0.000141 0
0.000551 0.000138 0
0.000584 0.000133 0
0.000617 0.000128 0
0.000650 0.000123 0
0.000682 0.000116 0
0.000714 0.000109 0
0.000745 0.000101 0
0.000775 0.000092 0
0.000803 0.000083 0
0.000829 0.000074 0
0.000853 0.000064 0
0.000873 0.000054 0
0.000890 0.000045 0
0.000902 0.000035 0
0.000909 0.000026 0
0.000911 0.000017 0
0.000907 0.000008 0
0.000895 0.000001 0
0.000876 -0.000006 0
0.000848 -0.000011 0
0.000812 -0.000016 0
0.000766 -0.000019 0
0.000711 -0.000021 0
0.000647 -0.000022 0
0.000574 -0.000021 0
0.000493 -0.000019 0
0.000404 -0.000016 0
0.000309 -0.000012 0
0.000209 -0.000008 0
0.000105 -0.000003 0
0.000000 0.000000 0
0.000000 0.000000 0
0.000047 0.000029 0
0.000093 0.000057 0
0.000141 0.000085 0
0.000188 0.000112 0
0.000237 0.000137 0
0.000286 0.000161 0
0.000336 0.000184 0
0.000387 0.000204 0
0.000439 0.000223 0
0.000493 0.000239 0
0.000548 0.000253 0
0.000604 0.000265 0
0.000662 0.000275 0
0.000721 0.000282 0
0.000781 0.000286 0
0.000843 0.000289 0
0.000906 0.000289 0
0.000970 0.000287 0
0.001036 0.000283 0
0.001101 0.000276 0
0.001168 0.000268 0
0.001234 0.000258 0
0.001300 0.000246 0
0.001365 0.000233 0
0.001430 0.000218 0
0.001492 0.000202 0
0.001552 0.000185 0
0.001608 0.000167 0
0.001661 0.000148 0
0.001708 0.000129 0
0.001750 0.000109 0
0.001784 0.000089 0
0.001809 0.000070 0
0.001825 0.000051 0
0.001829 0.000033 0
0.001820 0.000016 0
0.001798 0.000001 0
0.001760 -0.000012 0
0.001705 -0.000024 0
0.001632 -0.000033 0
0.001541 -0.000039 0
0.001431 -0.000043 0
0.001303 -0.000044 0
0.001157 -0.000043 0
0.000993 -0.000039 0
0.000815 -0.000033 0
0.000623 -0.000025 0
0.000421 -0.000015 0
0.000212 -0.000005 0
0.000000 0.000000 0
0.000000 0.000000 0
0.000070 0.000044 0
0.000140 0.000087 0
0.000210 0.000129 0
0.000282 0.000169 0
0.000354 0.000208 0
0.000427 0.000245 0
0.000502 0.000278 0
0.000579 0.000310 0
0.000657 0.000338 0
0.000738 0.000362 0
0.000820 0.000384 0
0.000905 0.000401 0
0.000991 0.000416 0
0.001080 0.000426 0
0.001171 0.000433 0
0.001264 0.000437 0
0.001359 0.000437 0
0.001456 0.000434 0
0.001554 0.000427 0
0.001653 0.000418 0
0.001752 0.000405 0
0.001852 0.000390 0
0.001952 0.000372 0
0.002051 0.000352 0
0.002148 0.000330 0
0.002242 0.000306 0
0.002333 0.000280 0
0.002419 0.000252 0
0.002499 0.000224 0
0.002571 0.000194 0
0.002635 0.000165 0
0.002687 0.000135 0
0.002727 0.000105 0
0.002752 0.000077 0
0.002759 0.000049 0
0.002748 0.000024 0
0.002716 0.000000 0
0.002660 -0.000020 0
0.002578 -0.000038 0
0.002470 -0.000052 0
0.002334 -0.000062 0
0.002169 -0.000067 0
0.001976 -0.000069 0
0.001755 -0.000067 0
0.001508 -0.000061 0
0.001237 -0.000051 0
0.000947 -0.000039 0
0.000640 -0.000024 0
0.000323 -0.000008 0
0.000000 0.000000 0
0.000000 0.000000 0
0.000093 0.000059 0
0.000186 0.000117 0
0.000280 0.000174 0
0.000374 0.000229 0
0.000470 0.000281 0
0.000568 0.000331 0
0.000668 0.000376 0
0.000770 0.000418 0
0.000875 0.000456 0
0.000982 0.000489 0
0.001092 0.000518 0
0.001204 0.000542 0
0.001320 0.000561 0
0.001439 0.000575 0
0.001560 0.000585 0
0.001685 0.000589 0
0.001812 0.000589 0
0.001941 0.000585 0
0.002072 0.000576 0
0.002205 0.000563 0
0.002339 0.000547 0
0.002473 0.000526 0
0.002607 0.000502 0
0.002740 0.000475 0
0.002871 0.000445 0
0.002998 0.000412 0
0.003121 0.000377 0
0.003237 0.000340 0
0.003346 0.000301 0
0.003445 0.000261 0
0.003532 0.000221 0
0.003604 0.000180 0
0.003660 0.000140 0
0.003696 0.000101 0
0.003709 0.000064 0
0.003697 0.000029 0
0.003656 -0.000003 0
0.003584 -0.000031 0
0.003478 -0.000055 0
0.003335 -0.000074 0
0.003154 -0.000087 0
0.002934 -0.000095 0
0.002675 -0.000097 0
0.002377 -0.000094 0
0.002044 -0.000085 0
0.001678 -0.000072 0
0.001285 -0.000054 0
0.000869 -0.000034 0
0.000439 -0.000012 0
0.000000 0.000000 0
0.000000 0.000000 0
0.000115 0.000075 0
0.000231 0.000149 0
0.000348 0.000222 0
0.000466 0.000291 0
0.000586 0.000358 0
0.000708 0.000421 0
0.000832 0.000479 0
0.000959 0.000532 0
0.001090 0.000580 0
0.001224 0.000622 0
0.001361 0.000658 0
0.001502 0.000689 0
0.001647 0.000713 0
0.001796 0.000730 0
0.001949 0.000742 0
0.002105 0.000748 0
0.002264 0.000748 0
0.002427 0.000742 0
0.002592 0.000731 0
0.002759 0.000714 0
0.002928 0.000693 0
0.003097 0.000667 0
0.003266 0.000636 0
0.003434 0.000602 0
0.003600 0.000563 0
0.003761 0.000522 0
0.003917 0.000477 0
0.004066 0.000430 0
0.004205 0.000381 0
0.004332 0.000330 0
0.004445 0.000279 0
0.004540 0.000227 0
0.004614 0.000176 0
0.004663 0.000126 0
0.004685 0.000078 0
0.004674 0.000033 0
0.004628 -0.000008 0
0.004542 -0.000044 0
0.004412 -0.000075 0
0.004236 -0.000100 0
0.004010 -0.000117 0
0.003735 -0.000128 0
0.003408 -0.000130 0
0.003032 -0.000126 0
0.002610 -0.000114 0
0.002144 -0.000096 0
0.001643 -0.000073 0
0.001112 -0.000045 0
0.000561 -0.000015 0
0.000000 0.000000 0
0.000000 0.000000 0
0.000138 0.000092 0
0.000276 0.000183 0
0.000415 0.000272 0
0.000556 0.000358 0
0.000699 0.000439 0
0.000845 0.000516 0
0.000994 0.000587 0
0.001147 0.000653 0
0.001303 0.000711 0
0.001464 0.000762 0
0.001629 0.000806 0
0.001799 0.000843 0
0.001973 0.000872 0
0.002152 0.000893 0
0.002336 0.000908 0
0.002525 0.000914 0
0.002717 0.000914 0
0.002913 0.000907 0
0.003113 0.000893 0
0.003315 0.000872 0
0.003520 0.000846 0
0.003725 0.000814 0
0.003931 0.000777 0
0.004135 0.000734 0
0.004337 0.000687 0
0.004534 0.000636 0
0.004725 0.000582 0
0.004908 0.000524 0
0.005080 0.000464 0
0.005238 0.000402 0
0.005379 0.000338 0
0.005499 0.000274 0
0.005594 0.000211 0
0.005660 0.000149 0
0.005693 0.000090 0
0.005687 0.000034 0
0.005638 -0.000017 0
0.005540 -0.000062 0
0.005389 -0.000101 0
0.005181 -0.000131 0
0.004912 -0.000154 0
0.004581 -0.000166 0
0.004186 -0.000170 0
0.003729 -0.000164 0
0.003213 -0.000148 0
0.002642 -0.000125 0
0.002026 -0.000095 0
0.001372 -0.000059 0
0.000693 -0.000020 0
0.000000 0.000000 0
0.000000 0.000000 0
0.000160 0.000110 0
0.000320 0.000220 0
0.000481 0.000326 0
0.000645 0.000429 0
0.000811 0.000526 0
0.000981 0.000618 0
0.001154 0.000703 0
0.001332 0.000781 0
0.001514 0.000850 0
0.001702 0.000911 0
0.001894 0.000963 0
0.002093 0.001007 0
0.002297 0.001041 0
0.002507 0.001066 0
0.002723 0.001082 0
0.002944 0.001090 0
0.003170 0.001089 0
0.003401 0.001080 0
0.003636 0.001063 0
0.003875 0.001039 0
0.004116 0.001007 0
0.004359 0.000969 0
0.004602 0.000924 0
0.004844 0.000874 0
0.005084 0.000818 0
0.005319 0.000757 0
0.005548 0.000691 0
0.005767 0.000622 0
0.005974 0.000550 0
0.006165 0.000476 0
0.006337 0.000400 0
0.006486 0.000323 0
0.006606 0.000247 0
0.006693 0.000172 0
0.006740 0.000100 0
0.006743 0.000032 0
0.006694 -0.000030 0
0.006588 -0.000086 0
0.006419 -0.000133 0
0.006181 -0.000170 0
0.005870 -0.000198 0
0.005483 -0.000213 0
0.005018 -0.000217 0
0.004477 -0.000209 0
0.003862 -0.000189 0
0.003180 -0.000159 0
0.002440 -0.000121 0
0.001654 -0.000075 0
0.000835 -0.000026 0
0.000000 0.000000 0
0.000000 0.000000 0
0.000181 0.000130 0
0.000363 0.000259 0
0.000546 0.000384 0
0.000732 0.000505 0
0.000921 0.000620 0
0.001114 0.000728 0
0.001311 0.000828 0
0.001514 0.000919 0
0.001722 0.001000 0
0.001936 0.001071 0
0.002157 0.001132 0
0.002385 0.001182 0
0.002619 0.001221 0
0.002860 0.001250 0
0.003108 0.001269 0
0.003363 0.001277 0
0.003624 0.001275 0
0.003890 0.001264 0
0.004162 0.001244 0
0.004438 0.001215 0
0.004717 0.001178 0
0.004999 0.001133 0
0.005281 0.001080 0
0.005564 0.001021 0
0.005843 0.000955 0
0.006118 0.000884 0
0.006387 0.000807 0
0.006645 0.000726 0
0.006890 0.000641 0
0.007118 0.000553 0
0.007325 0.000463 0
0.007506 0.000373 0
0.007655 0.000282 0
0.007767 0.000193 0
0.007834 0.000107 0
0.007849 0.000026 0
0.007806 -0.000049 0
0.007696 -0.000116 0
0.007512 -0.000173 0
0.007247 -0.000218 0
0.006895 -0.000251 0
0.006452 -0.000270 0
0.005916 -0.000275 0
0.005286 -0.000264 0
0.004567 -0.000239 0
0.003766 -0.000202 0
0.002893 -0.000153 0
0.001962 -0.000095 0
0.000992 -0.000032 0
0.000000 0.000000 0
0.000000 0.000000 0
0.000202 0.000152 0
0.000404 0.000302 0
0.000609 0.000448 0
0.000817 0.000589 0
0.001028 0.000723 0
0.001244 0.000848 0
0.001465 0.000963 0
0.001692 0.001068 0
0.001926 0.001162 0
0.002168 0.001244 0
0.002417 0.001313 0
0.002674 0.001371 0
0.002939 0.001415 0
0.003212 0.001448 0
0.003493 0.001468 0
0.003782 0.001477 0
0.004078 0.001474 0
0.004382 0.001461 0
0.004691 0.001437 0
0.005006 0.001403 0
0.005325 0.001359 0
0.005647 0.001307 0
0.005971 0.001246 0
0.006295 0.001177 0
0.006617 0.001101 0
0.006935 0.001018 0
0.007245 0.000929 0
0.007546 0.000835 0
0.007833 0.000737 0
0.008101 0.000634 0
0.008347 0.000530 0
0.008565 0.000423 0
0.008747 0.000317 0
0.008888 0.000213 0
0.008980 0.000111 0
0.009014 0.000015 0
0.008981 -0.000074 0
0.008872 -0.000154 0
0.008678 -0.000222 0
0.008390 -0.000277 0
0.007999 -0.000317 0
0.007501 -0.000340 0
0.006891 -0.000345 0
0.006170 -0.000331 0
0.005340 -0.000300 0
0.004409 -0.000253 0
0.003391 -0.000192 0
0.002303 -0.000120 0
0.001164 -0.000041 0
0.000000 0.000000 0
0.000000 0.000000 0
0.000222 0.000176 0
0.000445 0.000349 0
0.000670 0.000518 0
0.000898 0.000681 0
0.001131 0.000835 0
0.001370 0.000979 0
0.001615 0.001111 0
0.001867 0.001232 0
0.002127 0.001339 0
0.002395 0.001432 0
0.002673 0.001511 0
0.002960 0.001575 0
0.003256 0.001625 0
0.003562 0.001661 0
0.003877 0.001684 0
0.004202 0.001693 0
0.004535 0.001688 0
0.004876 0.001672 0
0.005224 0.001644 0
0.005580 0.001604 0
0.005940 0.001554 0
0.006305 0.001493 0
0.006672 0.001423 0
0.007041 0.001344 0
0.007407 0.001257 0
0.007770 0.001162 0
0.008127 0.001060 0
0.008473 0.000951 0
0.008805 0.000838 0
0.009118 0.000720 0
0.009408 0.000599 0
0.009667 0.000476 0
0.009888 0.000352 0
0.010065 0.000230 0
0.010187 0.000111 0
0.010246 -0.000002 0
0.010229 -0.000107 0
0.010127 -0.000202 0
0.009928 -0.000284 0
0.009621 -0.000350 0
0.009195 -0.000398 0
0.008643 -0.000425 0
0.007958 -0.000431 0
0.007140 -0.000414 0
0.006192 -0.000376 0
0.005122 -0.000317 0
0.003945 -0.000240 0
0.002682 -0.000150 0
0.001357 -0.000051 0
0.000000 0.000000 0
0.000000 0.000000 0
0.000241 0.000202 0
0.000483 0.000402 0
0.000728 0.000596 0
0.000977 0.000782 0
0.001231 0.000959 0
0.001492 0.001123 0
0.001760 0.001275 0
0.002037 0.001411 0
0.002323 0.001532 0
0.002619 0.001637 0
0.002925 0.001726 0
0.003242 0.001798 0
0.003571 0.001854 0
0.003910 0.001893 0
0.004260 0.001917 0
0.004621 0.001926 0
0.004993 0.001920 0
0.005373 0.001900 0
0.005763 0.001866 0
0.006161 0.001820 0
0.006565 0.001762 0
0.006974 0.001693 0
0.007388 0.001613 0
0.007803 0.001523 0
0.008217 0.001423 0
0.008629 0.001315 0
0.009034 0.001199 0
0.009430 0.001075 0
0.009811 0.000946 0
0.010174 0.000811 0
0.010511 0.000671 0
0.010817 0.000530 0
0.011084 0.000387 0
0.011303 0.000245 0
0.011462 0.000107 0
0.011553 -0.000026 0
0.011560 -0.000150 0
0.011472 -0.000262 0
0.011275 -0.000360 0
0.010954 -0.000439 0
0.010497 -0.000496 0
0.009892 -0.000529 0
0.009133 -0.000536 0
0.008214 -0.000516 0
0.007139 -0.000468 0
0.005917 -0.000395 0
0.004565 -0.000300 0
0.003107 -0.000187 0
0.001573 -0.000064 0
0.000000 0.000000 0
0.000000 0.000000 0
0.000259 0.000232 0
0.000520 0.000460 0
0.000784 0.000683 0
0.001052 0.000895 0
0.001327 0.001097 0
0.001609 0.001284 0
0.001900 0.001455 0
0.002201 0.001610 0
0.002513 0.001746 0
0.002837 0.001864 0
0.003173 0.001963 0
0.003521 0.002042 0
0.003882 0.002103 0
0.004256 0.002146 0
0.004643 0.002171 0
0.005042 0.002179 0
0.005453 0.002170 0
0.005876 0.002146 0
0.006308 0.002107 0
0.006750 0.002054 0
0.007200 0.001987 0
0.007657 0.001908 0
0.008119 0.001817 0
0.008584 0.001715 0
0.009049 0.001602 0
0.009513 0.001480 0
0.009971 0.001348 0
0.010420 0.001208 0
0.010855 0.001061 0
0.011272 0.000907 0
0.011664 0.000748 0
0.012023 0.000585 0
0.012341 0.000421 0
0.012608 0.000257 0
0.012814 0.000097 0
0.012944 -0.000058 0
0.012984 -0.000204 0
0.012918 -0.000337 0
0.012731 -0.000453 0
0.012403 -0.000547 0
0.011920 -0.000616 0
0.011267 -0.000657 0
0.010431 -0.000666 0
0.009408 -0.000641 0
0.008198 -0.000582 0
0.006810 -0.000492 0
0.005263 -0.000374 0
0.003587 -0.000234 0
0.001818 -0.000080 0
0.000000 0.000000 0
0.000000 0.000000 0
0.000276 0.000265 0
0.000554 0.000526 0
0.000836 0.000780 0
0.001123 0.001022 0
0.001417 0.001251 0
0.001721 0.001463 0
0.002034 0.001657 0
0.002360 0.001830 0
0.002698 0.001983 0
0.003049 0.002114 0
0.003415 0.002223 0
0.003795 0.002311 0
0.004191 0.002377 0
0.004601 0.002423 0
0.005025 0.002448 0
0.005464 0.002454 0
0.005917 0.002442 0
0.006383 0.002413 0
0.006861 0.002368 0
0.007350 0.002306 0
0.007848 0.002230 0
0.008355 0.002141 0
0.008869 0.002038 0
0.009386 0.001922 0
0.009906 0.001795 0
0.010425 0.001657 0
0.010940 0.001508 0
0.011447 0.001350 0
0.011942 0.001184 0
0.012418 0.001009 0
0.012869 0.000829 0
0.013288 0.000643 0
0.013665 0.000455 0
0.013990 0.000266 0
0.014249 0.000080 0
0.014428 -0.000100 0
0.014510 -0.000271 0
0.014477 -0.000428 0
0.014309 -0.000566 0
0.013984 -0.000679 0
0.013483 -0.000763 0
0.012784 -0.000813 0
0.011874 -0.000824 0
0.010742 -0.000795 0
0.009387 -0.000724 0
0.007818 -0.000613 0
0.006055 -0.000466 0
0.004133 -0.000292 0
0.002097 -0.000099 0
0.000000 0.000000 0
0.000000 0.000000 0
0.000292 0.000303 0
0.000585 0.000601 0
0.000883 0.000889 0
0.001188 0.001165 0
0.001501 0.001424 0
0.001825 0.001664 0
0.002161 0.001882 0
0.002510 0.002077 0
0.002875 0.002247 0
0.003255 0.002392 0
0.003651 0.002513 0
0.004065 0.002608 0
0.004495 0.002679 0
0.004943 0.002727 0
0.005407 0.002752 0
0.005888 0.002756 0
0.006385 0.002739 0
0.006897 0.002704 0
0.007422 0.002651 0
0.007961 0.002580 0
0.008511 0.002494 0
0.009071 0.002392 0
0.009640 0.002276 0
0.010214 0.002146 0
0.010792 0.002003 0
0.011371 0.001848 0
0.011947 0.001681 0
0.012517 0.001504 0
0.013075 0.001316 0
0.013617 0.001119 0
0.014135 0.000914 0
0.014620 0.000704 0
0.015064 0.000489 0
0.015454 0.000272 0
0.015777 0.000057 0
0.016015 -0.000153 0
0.016151 -0.000353 0
0.016162 -0.000539 0
0.016025 -0.000703 0
0.015714 -0.000839 0
0.015202 -0.000942 0
0.014466 -0.001004 0
0.013484 -0.001019 0
0.012241 -0.000985 0
0.010731 -0.000899 0
0.008962 -0.000763 0
0.006958 -0.000582 0
0.004758 -0.000365 0
0.002417 -0.000124 0
0.000000 0.000000 0
0.000000 0.000000 0
0.000305 0.000345 0
0.000613 0.000685 0
0.000926 0.001014 0
0.001247 0.001327 0
0.001578 0.001621 0
0.001921 0.001891 0
0.002279 0.002136 0
0.002652 0.002354 0
0.003043 0.002543 0
0.003452 0.002703 0
0.003880 0.002834 0
0.004328 0.002937 0
0.004796 0.003012 0
0.005283 0.003061 0
0.005789 0.003085 0
0.006314 0.003086 0
0.006858 0.003064 0
0.007418 0.003021 0
0.007995 0.002959 0
0.008586 0.002877 0
0.009191 0.002779 0
0.009808 0.002664 0
0.010435 0.002533 0
0.011070 0.002388 0
0.011710 0.002228 0
0.012353 0.002054 0
0.012996 0.001868 0
0.013633 0.001669 0
0.014262 0.001458 0
0.014875 0.001237 0
0.015465 0.001006 0
0.016025 0.000767 0
0.016544 0.000522 0
0.017010 0.000274 0
0.017406 0.000025 0
0.017716 -0.000219 0
0.017917 -0.000453 0
0.017986 -0.000672 0
0.017894 -0.000868 0
0.017609 -0.001033 0
0.017101 -0.001159 0
0.016336 -0.001236 0
0.015286 -0.001259 0
0.013930 -0.001220 0
0.012255 -0.001116 0
0.010269 -0.000950 0
0.007994 -0.000726 0
0.005478 -0.000456 0
0.002786 -0.000156 0
0.000000 0.000000 0
0.000000 0.000000 0
0.000317 0.000395 0
0.000636 0.000782 0
0.000962 0.001157 0
0.001298 0.001513 0
0.001645 0.001845 0
0.002007 0.002149 0
0.002386 0.002424 0
0.002783 0.002666 0
0.003201 0.002875 0
0.003640 0.003050 0
0.004101 0.003192 0
0.004585 0.003303 0
0.005091 0.003382 0
0.005620 0.003431 0
0.006171 0.003453 0
0.006743 0.003448 0
0.007336 0.003419 0
0.007949 0.003367 0
0.008580 0.003294 0
0.009228 0.003201 0
0.009892 0.003089 0
0.010569 0.002959 0
0.011259 0.002812 0
0.011959 0.002650 0
0.012666 0.002471 0
0.013378 0.002278 0
0.014091 0.002070 0
0.014802 0.001848 0
0.015506 0.001612 0
0.016197 0.001364 0
0.016868 0.001104 0
0.017511 0.000834 0
0.018114 0.000555 0
0.018664 0.000271 0
0.019146 -0.000015 0
0.019540 -0.000298 0
0.019822 -0.000572 0
0.019963 -0.000831 0
0.019932 -0.001066 0
0.019691 -0.001266 0
0.019200 -0.001421 0
0.018419 -0.001520 0
0.017310 -0.001552 0
0.015840 -0.001510 0
0.013992 -0.001387 0
0.011767 -0.001184 0
0.009189 -0.000908 0
0.006312 -0.000571 0
0.003215 -0.000195 0
0.000000 0.000000 0
0.000000 0.000000 0
0.000326 0.000451 0
0.000655 0.000894 0
0.000992 0.001321 0
0.001339 0.001725 0
0.001701 0.002101 0
0.002081 0.002444 0
0.002480 0.002750 0
0.002902 0.003019 0
0.003347 0.003250 0
0.003816 0.003441 0
0.004312 0.003594 0
0.004833 0.003710 0
0.005381 0.003792 0
0.005954 0.003840 0
0.006553 0.003858 0
0.007176 0.003846 0
0.007822 0.003809 0
0.008491 0.003746 0
0.009180 0.003660 0
0.009889 0.003553 0
0.010616 0.003426 0
0.011359 0.003279 0
0.012116 0.003115 0
0.012885 0.002933 0
0.013664 0.002735 0
0.014450 0.002519 0
0.015240 0.002288 0
0.016030 0.002041 0
0.016816 0.001779 0
0.017592 0.001501 0
0.018351 0.001209 0
0.019084 0.000905 0
0.019781 0.000589 0
0.020428 0.000265 0
0.021007 -0.000064 0
0.021499 -0.000392 0
0.021877 -0.000714 0
0.022109 -0.001020 0
0.022157 -0.001301 0
0.021978 -0.001545 0
0.021525 -0.001738 0
0.020744 -0.001865 0
0.019587 -0.001912 0
0.018008 -0.001868 0
0.015979 -0.001723 0
0.013493 -0.001477 0
0.010574 -0.001136 0
0.007282 -0.000717 0
0.003716 -0.000245 0
0.000000 0.000000 0
0.000000 0.000000 0
0.000331 0.000517 0
0.000667 0.001024 0
0.001012 0.001511 0
0.001369 0.001970 0
0.001745 0.002395 0
0.002140 0.002781 0
0.002559 0.003124 0
0.003005 0.003422 0
0.003478 0.003674 0
0.003979 0.003881 0
0.004511 0.004045 0
0.005073 0.004166 0
0.005664 0.004249 0
0.006285 0.004294 0
0.006935 0.004305 0
0.007613 0.004285 0
0.008317 0.004236 0
0.009046 0.004160 0
0.009798 0.004059 0
0.010573 0.003936 0
0.011368 0.003792 0
0.012181 0.003627 0
0.013011 0.003443 0
0.013855 0.003241 0
0.014711 0.003020 0
0.015577 0.002782 0
0.016450 0.002525 0
0.017325 0.002251 0
0.018199 0.001959 0
0.019067 0.001650 0
0.019921 0.001324 0
0.020754 0.000981 0
0.021554 0.000624 0
0.022309 0.000255 0
0.023000 -0.000123 0
0.023605 -0.000503 0
0.024095 -0.000880 0
0.024437 -0.001243 0
0.024587 -0.001581 0
0.024495 -0.001879 0
0.024102 -0.002119 0
0.023344 -0.002284 0
0.022155 -0.002354 0
0.020476 -0.002311 0
0.018260 -0.002143 0
0.015491 -0.001846 0
0.012188 -0.001426 0
0.008420 -0.000903 0
0.004305 -0.000309 0
0.000000 0.000000 0
0.000000 0.000000 0
0.000333 0.000594 0
0.000671 0.001175 0
0.001020 0.001732 0
0.001385 0.002255 0
0.001771 0.002736 0
0.002182 0.003170 0
0.002620 0.003552 0
0.003089 0.003881 0
0.003591 0.004157 0
0.004126 0.004380 0
0.004696 0.004553 0
0.005301 0.004678 0
0.005940 0.004758 0
0.006613 0.004798 0