# vtk DataFile Version 2.0
generated by CFD-lab course output (written by Tobias Neckel) 
ASCII

DATASET STRUCTURED_GRID
DIMENSIONS  51 51 1 
POINTS 2601 float

0.000000 0.000000 0
0.020000 0.000000 0
0.040000 0.000000 0
0.060000 0.000000 0
0.080000 0.000000 0
0.100000 0.000000 0
0.120000 0.000000 0
0.140000 0.000000 0
0.160000 0.000000 0
0.180000 0.000000 0
0.200000 0.000000 0
0.220000 0.000000 0
0.240000 0.000000 0
0.260000 0.000000 0
0.280000 0.000000 0
0.300000 0.000000 0
0.320000 0.000000 0
0.340000 0.000000 0
0.360000 0.000000 0
0.380000 0.000000 0
0.400000 0.000000 0
0.420000 0.000000 0
0.440000 0.000000 0
0.460000 0.000000 0
0.480000 0.000000 0
0.500000 0.000000 0
0.520000 0.000000 0
0.540000 0.000000 0
0.560000 0.000000 0
0.580000 0.000000 0
0.600000 0.000000 0
0.620000 0.000000 0
0.640000 0.000000 0
0.660000 0.000000 0
0.680000 0.000000 0
0.700000 0.000000 0
0.720000 0.000000 0
0.740000 0.000000 0
0.760000 0.000000 0
0.780000 0.000000 0
0.800000 0.000000 0
0.820000 0.000000 0
0.840000 0.000000 0
0.860000 0.000000 0
0.880000 0.000000 0
0.900000 0.000000 0
0.920000 0.000000 0
0.940000 0.000000 0
0.960000 0.000000 0
0.980000 0.000000 0
1.000000 0.000000 0
0.000000 0.020000 0
0.020000 0.020000 0
0.040000 0.020000 0
0.060000 0.020000 0
0.080000 0.020000 0
0.100000 0.020000 0
0.120000 0.020000 0
0.140000 0.020000 0
0.160000 0.020000 0
0.180000 0.020000 0
0.200000 0.020000 0
0.220000 0.020000 0
0.240000 0.020000 0
0.260000 0.020000 0
0.280000 0.020000 0
0.300000 0.020000 0
0.320000 0.020000 0
0.340000 0.020000 0
0.360000 0.020000 0
0.380000 0.020000 0
0.400000 0.020000 0
0.420000 0.020000 0
0.440000 0.020000 0
0.460000 0.020000 0
0.480000 0.020000 0
0.500000 0.020000 0
0.520000 0.020000 0
0.540000 0.020000 0
0.560000 0.020000 0
0.580000 0.020000 0
0.600000 0.020000 0
0.620000 0.020000 0
0.640000 0.020000 0
0.660000 0.020000 0
0.680000 0.020000 0
0.700000 0.020000 0
0.720000 0.020000 0
0.740000 0.020000 0
0.760000 0.020000 0
0.780000 0.020000 0
0.800000 0.020000 0
0.820000 0.020000 0
0.840000 0.020000 0
0.860000 0.020000 0
0.880000 0.020000 0
0.900000 0.020000 0
0.920000 0.020000 0
0.940000 0.020000 0
0.960000 0.020000 0
0.980000 0.020000 0
1.000000 0.020000 0
0.000000 0.040000 0
0.020000 0.040000 0
0.040000 0.040000 0
0.060000 0.040000 0
0.080000 0.040000 0
0.100000 0.040000 0
0.120000 0.040000 0
0.140000 0.040000 0
0.160000 0.040000 0
0.180000 0.040000 0
0.200000 0.040000 0
0.220000 0.040000 0
0.240000 0.040000 0
0.260000 0.040000 0
0.280000 0.040000 0
0.300000 0.040000 0
0.320000 0.040000 0
0.340000 0.040000 0
0.360000 0.040000 0
0.380000 0.040000 0
0.400000 0.040000 0
0.420000 0.040000 0
0.440000 0.040000 0
0.460000 0.040000 0
0.480000 0.040000 0
0.500000 0.040000 0
0.520000 0.040000 0
0.540000 0.040000 0
0.560000 0.040000 0
0.580000 0.040000 0
0.600000 0.040000 0
0.620000 0.040000 0
0.640000 0.040000 0
0.660000 0.040000 0
0.680000 0.040000 0
0.700000 0.040000 0
0.720000 0.040000 0
0.740000 0.040000 0
0.760000 0.040000 0
0.780000 0.040000 0
0.800000 0.040000 0
0.820000 0.040000 0
0.840000 0.040000 0
0.860000 0.040000 0
0.880000 0.040000 0
0.900000 0.040000 0
0.920000 0.040000 0
0.940000 0.040000 0
0.960000 0.040000 0
0.980000 0.040000 0
1.000000 0.040000 0
0.000000 0.060000 0
0.020000 0.060000 0
0.040000 0.060000 0
0.060000 0.060000 0
0.080000 0.060000 0
0.100000 0.060000 0
0.120000 0.060000 0
0.140000 0.060000 0
0.160000 0.060000 0
0.180000 0.060000 0
0.200000 0.060000 0
0.220000 0.060000 0
0.240000 0.060000 0
0.260000 0.060000 0
0.280000 0.060000 0
0.300000 0.060000 0
0.320000 0.060000 0
0.340000 0.060000 0
0.360000 0.060000 0
0.380000 0.060000 0
0.400000 0.060000 0
0.420000 0.060000 0
0.440000 0.060000 0
0.460000 0.060000 0
0.480000 0.060000 0
0.500000 0.060000 0
0.520000 0.060000 0
0.540000 0.060000 0
0.560000 0.060000 0
0.580000 0.060000 0
0.600000 0.060000 0
0.620000 0.060000 0
0.640000 0.060000 0
0.660000 0.060000 0
0.680000 0.060000 0
0.700000 0.060000 0
0.720000 0.060000 0
0.740000 0.060000 0
0.760000 0.060000 0
0.780000 0.060000 0
0.800000 0.060000 0
0.820000 0.060000 0
0.840000 0.060000 0
0.860000 0.060000 0
0.880000 0.060000 0
0.900000 0.060000 0
0.920000 0.060000 0
0.940000 0.060000 0
0.960000 0.060000 0
0.980000 0.060000 0
1.000000 0.060000 0
0.000000 0.080000 0
0.020000 0.080000 0
0.040000 0.080000 0
0.060000 0.080000 0
0.080000 0.080000 0
0.100000 0.080000 0
0.120000 0.080000 0
0.140000 0.080000 0
0.160000 0.080000 0
0.180000 0.080000 0
0.200000 0.080000 0
0.220000 0.080000 0
0.240000 0.080000 0
0.260000 0.080000 0
0.280000 0.080000 0
0.300000 0.080000 0
0.320000 0.080000 0
0.340000 0.080000 0
0.360000 0.080000 0
0.380000 0.080000 0
0.400000 0.080000 0
0.420000 0.080000 0
0.440000 0.080000 0
0.460000 0.080000 0
0.480000 0.080000 0
0.500000 0.080000 0
0.520000 0.080000 0
0.540000 0.080000 0
0.560000 0.080000 0
0.580000 0.080000 0
0.600000 0.080000 0
0.620000 0.080000 0
0.640000 0.080000 0
0.660000 0.080000 0
0.680000 0.080000 0
0.700000 0.080000 0
0.720000 0.080000 0
0.740000 0.080000 0
0.760000 0.080000 0
0.780000 0.080000 0
0.800000 0.080000 0
0.820000 0.080000 0
0.840000 0.080000 0
0.860000 0.080000 0
0.880000 0.080000 0
0.900000 0.080000 0
0.920000 0.080000 0
0.940000 0.080000 0
0.960000 0.080000 0
0.980000 0.080000 0
1.000000 0.080000 0
0.000000 0.100000 0
0.020000 0.100000 0
0.040000 0.100000 0
0.060000 0.100000 0
0.080000 0.100000 0
0.100000 0.100000 0
0.120000 0.100000 0
0.140000 0.100000 0
0.160000 0.100000 0
0.180000 0.100000 0
0.200000 0.100000 0
0.220000 0.100000 0
0.240000 0.100000 0
0.260000 0.100000 0
0.280000 0.100000 0
0.300000 0.100000 0
0.320000 0.100000 0
0.340000 0.100000 0
0.360000 0.100000 0
0.380000 0.100000 0
0.400000 0.100000 0
0.420000 0.100000 0
0.440000 0.100000 0
0.460000 0.100000 0
0.480000 0.100000 0
0.500000 0.100000 0
0.520000 0.100000 0
0.540000 0.100000 0
0.560000 0.100000 0
0.580000 0.100000 0
0.600000 0.100000 0
0.620000 0.100000 0
0.640000 0.100000 0
0.660000 0.100000 0
0.680000 0.100000 0
0.700000 0.100000 0
0.720000 0.100000 0
0.740000 0.100000 0
0.760000 0.100000 0
0.780000 0.100000 0
0.800000 0.100000 0
0.820000 0.100000 0
0.840000 0.100000 0
0.860000 0.100000 0
0.880000 0.100000 0
0.900000 0.100000 0
0.920000 0.100000 0
0.940000 0.100000 0
0.960000 0.100000 0
0.980000 0.100000 0
1.000000 0.100000 0
0.000000 0.120000 0
0.020000 0.120000 0
0.040000 0.120000 0
0.060000 0.120000 0
0.080000 0.120000 0
0.100000 0.120000 0
0.120000 0.120000 0
0.140000 0.120000 0
0.160000 0.120000 0
0.180000 0.120000 0
0.200000 0.120000 0
0.220000 0.120000 0
0.240000 0.120000 0
0.260000 0.120000 0
0.280000 0.120000 0
0.300000 0.120000 0
0.320000 0.120000 0
0.340000 0.120000 0
0.360000 0.120000 0
0.380000 0.120000 0
0.400000 0.120000 0
0.420000 0.120000 0
0.440000 0.120000 0
0.460000 0.120000 0
0.480000 0.120000 0
0.500000 0.120000 0
0.520000 0.120000 0
0.540000 0.120000 0
0.560000 0.120000 0
0.580000 0.120000 0
0.600000 0.120000 0
0.620000 0.120000 0
0.640000 0.120000 0
0.660000 0.120000 0
0.680000 0.120000 0
0.700000 0.120000 0
0.720000 0.120000 0
0.740000 0.120000 0
0.760000 0.120000 0
0.780000 0.120000 0
0.800000 0.120000 0
0.820000 0.120000 0
0.840000 0.120000 0
0.860000 0.120000 0
0.880000 0.120000 0
0.900000 0.120000 0
0.920000 0.120000 0
0.940000 0.120000 0
0.960000 0.120000 0
0.980000 0.120000 0
1.000000 0.120000 0
0.000000 0.140000 0
0.020000 0.140000 0
0.040000 0.140000 0
0.060000 0.140000 0
0.080000 0.140000 0
0.100000 0.140000 0
0.120000 0.140000 0
0.140000 0.140000 0
0.160000 0.140000 0
0.180000 0.140000 0
0.200000 0.140000 0
0.220000 0.140000 0
0.240000 0.140000 0
0.260000 0.140000 0
0.280000 0.140000 0
0.300000 0.140000 0
0.320000 0.140000 0
0.340000 0.140000 0
0.360000 0.140000 0
0.380000 0.140000 0
0.400000 0.140000 0
0.420000 0.140000 0
0.440000 0.140000 0
0.460000 0.140000 0
0.480000 0.140000 0
0.500000 0.140000 0
0.520000 0.140000 0
0.540000 0.140000 0
0.560000 0.140000 0
0.580000 0.140000 0
0.600000 0.140000 0
0.620000 0.140000 0
0.640000 0.140000 0
0.660000 0.140000 0
0.680000 0.140000 0
0.700000 0.140000 0
0.720000 0.140000 0
0.740000 0.140000 0
0.760000 0.140000 0
0.780000 0.140000 0
0.800000 0.140000 0
0.820000 0.140000 0
0.840000 0.140000 0
0.860000 0.140000 0
0.880000 0.140000 0
0.900000 0.140000 0
0.920000 0.140000 0
0.940000 0.140000 0
0.960000 0.140000 0
0.980000 0.140000 0
1.000000 0.140000 0
0.000000 0.160000 0
0.020000 0.160000 0
0.040000 0.160000 0
0.060000 0.160000 0
0.080000 0.160000 0
0.100000 0.160000 0
0.120000 0.160000 0
0.140000 0.160000 0
0.160000 0.160000 0
0.180000 0.160000 0
0.200000 0.160000 0
0.220000 0.160000 0
0.240000 0.160000 0
0.260000 0.160000 0
0.280000 0.160000 0
0.300000 0.160000 0
0.320000 0.160000 0
0.340000 0.160000 0
0.360000 0.160000 0
0.380000 0.160000 0
0.400000 0.160000 0
0.420000 0.160000 0
0.440000 0.160000 0
0.460000 0.160000 0
0.480000 0.160000 0
0.500000 0.160000 0
0.520000 0.160000 0
0.540000 0.160000 0
0.560000 0.160000 0
0.580000 0.160000 0
0.600000 0.160000 0
0.620000 0.160000 0
0.640000 0.160000 0
0.660000 0.160000 0
0.680000 0.160000 0
0.700000 0.160000 0
0.720000 0.160000 0
0.740000 0.160000 0
0.760000 0.160000 0
0.780000 0.160000 0
0.800000 0.160000 0
0.820000 0.160000 0
0.840000 0.160000 0
0.860000 0.160000 0
0.880000 0.160000 0
0.900000 0.160000 0
0.920000 0.160000 0
0.940000 0.160000 0
0.960000 0.160000 0
0.980000 0.160000 0
1.000000 0.160000 0
0.000000 0.180000 0
0.020000 0.180000 0
0.040000 0.180000 0
0.060000 0.180000 0
0.080000 0.180000 0
0.100000 0.180000 0
0.120000 0.180000 0
0.140000 0.180000 0
0.160000 0.180000 0
0.180000 0.180000 0
0.200000 0.180000 0
0.220000 0.180000 0
0.240000 0.180000 0
0.260000 0.180000 0
0.280000 0.180000 0
0.300000 0.180000 0
0.320000 0.180000 0
0.340000 0.180000 0
0.360000 0.180000 0
0.380000 0.180000 0
0.400000 0.180000 0
0.420000 0.180000 0
0.440000 0.180000 0
0.460000 0.180000 0
0.480000 0.180000 0
0.500000 0.180000 0
0.520000 0.180000 0
0.540000 0.180000 0
0.560000 0.180000 0
0.580000 0.180000 0
0.600000 0.180000 0
0.620000 0.180000 0
[...]
POINT_DATA 2601 

VECTORS velocity float
0.000000 0.000000 0
-0.000000 0.000000 0
-0.000000 0.000000 0
-0.000000 0.000000 0
-0.000000 0.000000 0
-0.000000 0.000000 0
-0.000000 0.000000 0
-0.000000 0.000000 0
-0.000000 0.000000 0
-0.000000 0.000000 0
-0.000000 0.000000 0
-0.000000 0.000000 0
-0.000000 0.000000 0
-0.000000 0.000000 0
-0.000000 0.000000 0
-0.000000 0.000000 0
-0.000000 0.000000 0
-0.000000 0.000000 0
-0.000000 0.000000 0
-0.000000 0.000000 0
-0.000000 0.000000 0
-0.000000 0.000000 0
-0.000000 0.000000 0
-0.000000 0.000000 0
-0.000000 0.000000 0
-0.000000 0.000000 0
-0.000000 0.000000 0
-0.000000 0.000000 0
-0.000000 0.000000 0
-0.000000 0.000000 0
-0.000000 0.000000 0
-0.000000 0.000000 0
-0.000000 0.000000 0
-0.000000 0.000000 0
-0.000000 0.000000 0
-0.000000 0.000000 0
-0.000000 0.000000 0
-0.000000 0.000000 0
-0.000000 0.000000 0
-0.000000 0.000000 0
-0.000000 0.000000 0
-0.000000 0.000000 0
-0.000000 0.000000 0
-0.000000 0.000000 0
-0.000000 0.000000 0
-0.000000 0.000000 0
-0.000000 0.000000 0
-0.000000 0.000000 0
-0.000000 0.000000 0
-0.000000 0.000000 0
0.000000 0.000000 0
0.000000 0.000000 0
0.000024 0.000016 0
0.000047 0.000031 0
0.000071 0.000046 0
0.000095 0.000061 0
0.000119 0.000075 0
0.000144 0.000088 0
0.000169 0.000101 0
0.000195 0.000112 0
0.000221 0.000123 0
0.000248 0.000132 0
0.000275 0.000140 0
0.000303 0.000147 0
0.000332 0.000153 0
0.000362 0.000158 0
0.000392 0.000161 0
0.000422 0.000164 0
0.000454 0.000165 0
0.000485 0.000165 0
0.000517 0.000164 0
0.000550 0.000162 0
0.000583 0.000159 0
0.000615 0.000154 0
0.000648 0.000149 0
0.000680 0.000143 0
0.000711 0.000137 0
0.000742 0.000129 0
0.000771 0.000121 0
0.000799 0.000113 0
0.000824 0.000104 0
0.000847 0.000094 0
0.000867 0.000085 0
0.000883 0.000075 0
0.000895 0.000065 0
0.000903 0.000055 0
0.000904 0.000046 0
0.000899 0.000037 0
0.000888 0.000028 0
0.000868 0.000021 0
0.000841 0.000014 0
0.000804 0.000008 0
0.000759 0.000003 0
0.000705 -0.000001 0
0.000641 -0.000004 0
0.000569 -0.000006 0
0.000489 -0.000006 0
0.000401 -0.000006 0
0.000306 -0.000005 0
0.000207 -0.000003 0
0.000104 -0.000001 0
0.000000 0.000000 0
0.000000 0.000000 0
0.000047 0.000031 0
0.000094 0.000062 0
0.000142 0.000093 0
0.000190 0.000122 0
0.000238 0.000151 0
0.000288 0.000177 0
0.000338 0.000202 0
0.000389 0.000225 0
0.000442 0.000246 0
0.000495 0.000265 0
0.000550 0.000282 0
0.000606 0.000296 0
0.000664 0.000308 0
0.000723 0.000317 0
0.000783 0.000324 0
0.000844 0.000329 0
0.000907 0.000331 0
0.000971 0.000331 0
0.001035 0.000329 0
0.001100 0.000324 0
0.001165 0.000318 0
0.001231 0.000310 0
0.001296 0.000300 0
0.001361 0.000288 0
0.001424 0.000274 0
0.001485 0.000260 0
0.001544 0.000243 0
0.001600 0.000226 0
0.001651 0.000208 0
0.001698 0.000189 0
0.001738 0.000170 0
0.001771 0.000150 0
0.001796 0.000130 0
0.001811 0.000110 0
0.001815 0.000091 0
0.001806 0.000073 0
0.001783 0.000056 0
0.001745 0.000040 0
0.001690 0.000026 0
0.001618 0.000014 0
0.001527 0.000004 0
0.001419 -0.000003 0
0.001291 -0.000009 0
0.001146 -0.000012 0
0.000984 -0.000013 0
0.000807 -0.000012 0
0.000617 -0.000010 0
0.000417 -0.000007 0
0.000211 -0.000002 0
0.000000 0.000000 0
0.000000 0.000000 0
0.000070 0.000048 0
0.000141 0.000095 0
0.000212 0.000141 0
0.000284 0.000185 0
0.000357 0.000228 0
0.000431 0.000268 0
0.000506 0.000306 0
0.000583 0.000341 0
0.000661 0.000373 0
0.000742 0.000401 0
0.000824 0.000426 0
0.000908 0.000447 0
0.000995 0.000465 0
0.001083 0.000479 0
0.001174 0.000490 0
0.001266 0.000496 0
0.001360 0.000500 0
0.001456 0.000500 0
0.001553 0.000496 0
0.001651 0.000489 0
0.001749 0.000480 0
0.001848 0.000467 0
0.001946 0.000452 0
0.002044 0.000434 0
0.002139 0.000413 0
0.002232 0.000391 0
0.002321 0.000367 0
0.002406 0.000340 0
0.002484 0.000313 0
0.002555 0.000284 0
0.002617 0.000255 0
0.002668 0.000225 0
0.002707 0.000195 0
0.002731 0.000165 0
0.002738 0.000136 0
0.002726 0.000108 0
0.002693 0.000082 0
0.002637 0.000059 0
0.002556 0.000037 0
0.002449 0.000019 0
0.002314 0.000004 0
0.002150 -0.000008 0
0.001958 -0.000016 0
0.001739 -0.000021 0
0.001494 -0.000022 0
0.001226 -0.000021 0
0.000938 -0.000017 0
0.000635 -0.000011 0
0.000320 -0.000004 0
0.000000 0.000000 0
0.000000 0.000000 0
0.000094 0.000064 0
0.000187 0.000128 0
0.000282 0.000190 0
0.000377 0.000250 0
0.000474 0.000307 0
0.000572 0.000362 0
0.000672 0.000413 0
0.000775 0.000460 0
0.000879 0.000502 0
0.000987 0.000541 0
0.001096 0.000574 0
0.001209 0.000603 0
0.001324 0.000626 0
0.001443 0.000645 0
0.001564 0.000659 0
0.001687 0.000668 0
0.001813 0.000672 0
0.001941 0.000672 0
0.002071 0.000667 0
0.002203 0.000658 0
0.002335 0.000645 0
0.002468 0.000628 0
0.002600 0.000607 0
0.002731 0.000583 0
0.002859 0.000555 0
0.002985 0.000525 0
0.003105 0.000492 0
0.003220 0.000456 0
0.003327 0.000419 0
0.003424 0.000380 0
0.003509 0.000340 0
0.003580 0.000300 0
0.003634 0.000259 0
0.003668 0.000219 0
0.003681 0.000179 0
0.003668 0.000142 0
0.003627 0.000106 0
0.003554 0.000074 0
0.003448 0.000045 0
0.003306 0.000020 0
0.003126 -0.000000 0
0.002908 -0.000016 0
0.002651 -0.000027 0
0.002356 -0.000033 0
0.002026 -0.000034 0
0.001663 -0.000031 0
0.001273 -0.000025 0
0.000862 -0.000016 0
0.000435 -0.000006 0
0.000000 0.000000 0
0.000000 0.000000 0
0.000116 0.000082 0
0.000233 0.000162 0
0.000351 0.000241 0
0.000470 0.000317 0
0.000590 0.000390 0
0.000713 0.000459 0
0.000838 0.000524 0
0.000965 0.000583 0
0.001096 0.000637 0
0.001230 0.000685 0
0.001367 0.000728 0
0.001508 0.000764 0
0.001653 0.000793 0
0.001801 0.000817 0
0.001953 0.000834 0
0.002108 0.000845 0
0.002266 0.000850 0
0.002427 0.000849 0
0.002591 0.000843 0
0.002756 0.000831 0
0.002923 0.000814 0
0.003090 0.000792 0
0.003257 0.000766 0
0.003423 0.000735 0
0.003586 0.000700 0
0.003745 0.000661 0
0.003899 0.000619 0
0.004045 0.000574 0
0.004182 0.000527 0
0.004306 0.000477 0
0.004417 0.000426 0
0.004509 0.000374 0
0.004581 0.000322 0
0.004629 0.000271 0
0.004649 0.000221 0
0.004638 0.000173 0
0.004591 0.000127 0
0.004504 0.000086 0
0.004375 0.000049 0
0.004199 0.000017 0
0.003976 -0.000009 0
0.003702 -0.000029 0
0.003378 -0.000042 0
0.003006 -0.000049 0
0.002587 -0.000050 0
0.002125 -0.000045 0
0.001628 -0.000036 0
0.001102 -0.000023 0
0.000556 -0.000008 0
0.000000 0.000000 0
0.000000 0.000000 0
0.000139 0.000100 0
0.000278 0.000198 0
0.000419 0.000295 0
0.000561 0.000388 0
0.000705 0.000478 0
0.000851 0.000562 0
0.001001 0.000640 0
0.001154 0.000713 0
0.001311 0.000778 0
0.001471 0.000837 0
0.001636 0.000888 0
0.001806 0.000931 0
0.001980 0.000967 0
0.002158 0.000995 0
0.002341 0.001016 0
0.002528 0.001029 0
0.002719 0.001035 0
0.002914 0.001033 0
0.003112 0.001025 0
0.003312 0.001010 0
0.003514 0.000989 0
0.003717 0.000962 0
0.003920 0.000929 0
0.004122 0.000892 0
0.004321 0.000849 0
0.004515 0.000801 0
0.004704 0.000750 0
0.004883 0.000694 0
0.005052 0.000636 0
0.005207 0.000575 0
0.005345 0.000513 0
0.005463 0.000449 0
0.005556 0.000385 0
0.005620 0.000322 0
0.005651 0.000260 0
0.005644 0.000200 0
0.005593 0.000144 0
0.005495 0.000093 0
0.005345 0.000047 0
0.005138 0.000007 0
0.004871 -0.000025 0
0.004542 -0.000049 0
0.004150 -0.000065 0
0.003696 -0.000072 0
0.003185 -0.000072 0
0.002619 -0.000064 0
0.002008 -0.000051 0
0.001360 -0.000032 0
0.000687 -0.000011 0
0.000000 0.000000 0
0.000000 0.000000 0
0.000161 0.000119 0
0.000322 0.000237 0
0.000485 0.000352 0
0.000650 0.000464 0
0.000817 0.000570 0
0.000988 0.000670 0
0.001162 0.000764 0
0.001340 0.000850 0
0.001522 0.000928 0
0.001710 0.000997 0
0.001903 0.001057 0
0.002101 0.001108 0
0.002305 0.001150 0
0.002514 0.001183 0
0.002728 0.001206 0
0.002948 0.001221 0
0.003173 0.001227 0
0.003402 0.001225 0
0.003635 0.001215 0
0.003871 0.001197 0
0.004110 0.001171 0
0.004350 0.001139 0
0.004590 0.001099 0
0.004830 0.001054 0
0.005066 0.001002 0
0.005298 0.000946 0
0.005523 0.000884 0
0.005739 0.000818 0
0.005942 0.000748 0
0.006130 0.000675 0
0.006299 0.000600 0
0.006445 0.000524 0
0.006562 0.000447 0
0.006646 0.000370 0
0.006692 0.000295 0
0.006692 0.000223 0
0.006643 0.000155 0
0.006536 0.000093 0
0.006367 0.000038 0
0.006131 -0.000010 0
0.005821 -0.000048 0
0.005437 -0.000077 0
0.004976 -0.000095 0
0.004438 -0.000103 0
0.003829 -0.000100 0
0.003153 -0.000089 0
0.002419 -0.000070 0
0.001640 -0.000044 0
0.000828 -0.000015 0
0.000000 0.000000 0
0.000000 0.000000 0
0.000182 0.000140 0
0.000366 0.000279 0
0.000550 0.000414 0
0.000738 0.000545 0
0.000928 0.000669 0
0.001121 0.000787 0
0.001320 0.000896 0
0.001523 0.000996 0
0.001731 0.001086 0
0.001946 0.001167 0
0.002167 0.001236 0
0.002394 0.001295 0
0.002628 0.001343 0
0.002868 0.001381 0
0.003115 0.001407 0
0.003368 0.001424 0
0.003627 0.001430 0
0.003892 0.001427 0
0.004161 0.001414 0
0.004434 0.001392 0
0.004711 0.001361 0
0.004989 0.001323 0
0.005269 0.001276 0
0.005548 0.001223 0
0.005824 0.001162 0
0.006095 0.001095 0
0.006359 0.001023 0
0.006614 0.000945 0
0.006855 0.000863 0
0.007080 0.000777 0
0.007283 0.000689 0
0.007460 0.000598 0
0.007606 0.000507 0
0.007714 0.000416 0
0.007779 0.000327 0
0.007792 0.000241 0
0.007747 0.000161 0
0.007637 0.000086 0
0.007453 0.000020 0
0.007189 -0.000037 0
0.006839 -0.000082 0
0.006399 -0.000115 0
0.005867 -0.000136 0
0.005242 -0.000143 0
0.004529 -0.000138 0
0.003734 -0.000121 0
0.002868 -0.000094 0
0.001946 -0.000060 0
0.000983 -0.000021 0
0.000000 0.000000 0
0.000000 0.000000 0
0.000203 0.000163 0
0.000408 0.000324 0
0.000614 0.000481 0
0.000823 0.000632 0
0.001035 0.000776 0
0.001252 0.000912 0
0.001474 0.001038 0
0.001702 0.001153 0
0.001937 0.001257 0
0.002179 0.001349 0
0.002428 0.001428 0
0.002684 0.001495 0
0.002949 0.001549 0
0.003221 0.001591 0
0.003501 0.001621 0
0.003788 0.001638 0
0.004082 0.001645 0
0.004383 0.001639 0
0.004690 0.001623 0
0.005002 0.001597 0
0.005318 0.001561 0
0.005637 0.001516 0
0.005958 0.001462 0
0.006278 0.001399 0
0.006596 0.001329 0
0.006909 0.001251 0
0.007216 0.001167 0
0.007512 0.001077 0
0.007795 0.000981 0
0.008059 0.000881 0
0.008301 0.000778 0
0.008514 0.000672 0
0.008693 0.000566 0
0.008831 0.000459 0
0.008919 0.000354 0
0.008951 0.000253 0
0.008916 0.000158 0
0.008806 0.000070 0
0.008612 -0.000008 0
0.008325 -0.000075 0
0.007936 -0.000129 0
0.007441 -0.000167 0
0.006836 -0.000190 0
0.006120 -0.000196 0
0.005296 -0.000187 0
0.004373 -0.000163 0
0.003364 -0.000126 0
0.002284 -0.000080 0
0.001155 -0.000027 0
0.000000 0.000000 0
0.000000 0.000000 0
0.000224 0.000188 0
0.000448 0.000373 0
0.000675 0.000553 0
0.000905 0.000727 0
0.001140 0.000893 0
0.001379 0.001048 0
0.001625 0.001192 0
0.001878 0.001323 0
0.002139 0.001441 0
0.002407 0.001545 0
0.002685 0.001635 0
0.002971 0.001710 0
0.003267 0.001770 0
0.003572 0.001817 0
0.003886 0.001849 0
0.004208 0.001867 0
0.004539 0.001873 0
0.004878 0.001865 0
0.005224 0.001846 0
0.005576 0.001815 0
0.005934 0.001772 0
0.006295 0.001720 0
0.006658 0.001657 0
0.007023 0.001585 0
0.007385 0.001504 0
0.007744 0.001414 0
0.008095 0.001317 0
0.008437 0.001214 0
0.008764 0.001104 0
0.009073 0.000988 0
0.009357 0.000869 0
0.009612 0.000746 0
0.009830 0.000622 0
0.010002 0.000498 0
0.010121 0.000376 0
0.010177 0.000258 0
0.010158 0.000146 0
0.010055 0.000043 0
0.009856 -0.000049 0
0.009549 -0.000128 0
0.009125 -0.000190 0
0.008576 -0.000235 0
0.007896 -0.000260 0
0.007084 -0.000265 0
0.006143 -0.000250 0
0.005082 -0.000217 0
0.003914 -0.000168 0
0.002660 -0.000106 0
0.001346 -0.000036 0
0.000000 0.000000 0
0.000000 0.000000 0
0.000243 0.000215 0
0.000487 0.000427 0
0.000734 0.000633 0
0.000985 0.000832 0
0.001240 0.001021 0
0.001502 0.001198 0
0.001771 0.001361 0
0.002049 0.001509 0
0.002336 0.001642 0
0.002632 0.001759 0
0.002938 0.001859 0
0.003255 0.001942 0
0.003583 0.002009 0
0.003921 0.002059 0
0.004270 0.002093 0
0.004629 0.002112 0
0.004998 0.002116 0
0.005377 0.002106 0
0.005763 0.002082 0
0.006158 0.002045 0
0.006558 0.001996 0
0.006964 0.001935 0
0.007373 0.001863 0
0.007784 0.001780 0
0.008194 0.001688 0
0.008601 0.001586 0
0.009001 0.001475 0
0.009392 0.001356 0
0.009768 0.001230 0
0.010125 0.001098 0
0.010458 0.000961 0
0.010759 0.000820 0
0.011021 0.000677 0
0.011235 0.000534 0
0.011391 0.000392 0
0.011478 0.000254 0
0.011483 0.000123 0
0.011394 0.000002 0
0.011196 -0.000106 0
0.010875 -0.000198 0
0.010420 -0.000271 0
0.009819 -0.000323 0
0.009064 -0.000350 0
0.008152 -0.000353 0
0.007085 -0.000331 0
0.005872 -0.000286 0
0.004530 -0.000221 0
0.003083 -0.000139 0
0.001561 -0.000048 0
0.000000 0.000000 0
0.000000 0.000000 0
0.000261 0.000245 0
0.000524 0.000487 0
0.000790 0.000722 0
0.001060 0.000948 0
0.001336 0.001162 0
0.001620 0.001362 0
0.001912 0.001546 0
0.002214 0.001713 0
0.002527 0.001862 0
0.002851 0.001992 0
0.003187 0.002103 0
0.003535 0.002194 0
0.003895 0.002267 0
0.004268 0.002321 0
0.004654 0.002357 0
0.005051 0.002376 0
0.005460 0.002378 0
0.005879 0.002364 0
0.006309 0.002335 0
0.006748 0.002292 0
0.007194 0.002235 0
0.007647 0.002164 0
0.008104 0.002082 0
0.008565 0.001987 0
0.009025 0.001882 0
0.009484 0.001766 0
0.009937 0.001640 0
0.010380 0.001505 0
0.010810 0.001362 0
0.011221 0.001212 0
0.011608 0.001055 0
0.011962 0.000894 0
0.012275 0.000730 0
0.012537 0.000564 0
0.012738 0.000400 0
0.012864 0.000240 0
0.012901 0.000088 0
0.012834 -0.000054 0
0.012645 -0.000181 0
0.012318 -0.000289 0
0.011837 -0.000375 0
0.011186 -0.000434 0
0.010356 -0.000465 0
0.009339 -0.000465 0
0.008138 -0.000434 0
0.006760 -0.000374 0
0.005225 -0.000288 0
0.003561 -0.000182 0
0.001805 -0.000062 0
0.000000 0.000000 0
0.000000 0.000000 0
0.000278 0.000279 0
0.000558 0.000554 0
0.000842 0.000821 0
0.001131 0.001077 0
0.001427 0.001319 0
0.001732 0.001545 0
0.002047 0.001752 0
0.002374 0.001939 0
0.002712 0.002104 0
0.003064 0.002248 0
0.003430 0.002370 0
0.003810 0.002470 0
0.004205 0.002548 0
0.004614 0.002606 0
0.005037 0.002643 0
0.005474 0.002661 0
0.005924 0.002660 0
0.006388 0.002642 0
0.006862 0.002606 0
0.007348 0.002555 0
0.007843 0.002489 0
0.008345 0.002409 0
0.008854 0.002315 0
0.009367 0.002208 0
0.009882 0.002088 0
0.010396 0.001957 0
0.010905 0.001815 0
0.011407 0.001662 0
0.011895 0.001500 0
0.012366 0.001330 0
0.012811 0.001152 0
0.013225 0.000968 0
0.013596 0.000780 0
0.013915 0.000590 0
0.014169 0.000401 0
0.014344 0.000215 0
0.014423 0.000038 0
0.014387 -0.000128 0
0.014218 -0.000277 0
0.013893 -0.000405 0
0.013393 -0.000506 0
0.012698 -0.000575 0
0.011793 -0.000610 0
0.010668 -0.000607 0
0.009321 -0.000565 0
0.007763 -0.000486 0
0.006012 -0.000374 0
0.004104 -0.000235 0
0.002082 -0.000080 0
0.000000 0.000000 0
0.000000 0.000000 0
0.000294 0.000317 0
0.000590 0.000629 0
0.000890 0.000932 0
0.001197 0.001222 0
0.001512 0.001495 0
0.001837 0.001749 0
0.002174 0.001981 0
0.002525 0.002189 0
0.002890 0.002373 0
0.003271 0.002531 0
0.003667 0.002664 0
0.004080 0.002773 0
0.004510 0.002856 0
0.004957 0.002916 0
0.005420 0.002954 0
0.005899 0.002970 0
0.006393 0.002965 0
0.006902 0.002941 0
0.007425 0.002898 0
0.007960 0.002839 0
0.008506 0.002762 0
0.009062 0.002670 0
0.009626 0.002563 0
0.010195 0.002442 0
0.010768 0.002307 0
0.011341 0.002160 0
0.011912 0.002000 0
0.012476 0.001828 0
0.013028 0.001645 0
0.013564 0.001453 0
0.014075 0.001251 0
0.014555 0.001042 0
0.014992 0.000827 0
0.015377 0.000610 0
0.015694 0.000392 0
0.015928 0.000177 0
0.016059 -0.000029 0
0.016067 -0.000223 0
0.015928 -0.000399 0
0.015616 -0.000550 0
0.015106 -0.000669 0
0.014373 -0.000752 0
0.013396 -0.000792 0
0.012159 -0.000784 0
0.010659 -0.000729 0
0.008902 -0.000627 0
0.006911 -0.000482 0
0.004726 -0.000304 0
0.002400 -0.000104 0
0.000000 0.000000 0
0.000000 0.000000 0
0.000308 0.000360 0
0.000618 0.000715 0
0.000933 0.001058 0
0.001256 0.001386 0
0.001589 0.001694 0
0.001934 0.001979 0
0.002293 0.002238 0
0.002668 0.002469 0
0.003059 0.002672 0
0.003469 0.002846 0
0.003897 0.002990 0
0.004345 0.003106 0
0.004811 0.003195 0
0.005297 0.003257 0
0.005802 0.003293 0
0.006326 0.003306 0
0.006867 0.003296 0
0.007424 0.003265 0
0.007998 0.003214 0
0.008586 0.003144 0
0.009187 0.003056 0
0.009800 0.002951 0
0.010422 0.002830 0
0.011052 0.002693 0
0.011687 0.002542 0
0.012324 0.002376 0
0.012960 0.002196 0
0.013592 0.002004 0
0.014214 0.001798 0
0.014821 0.001581 0
0.015405 0.001354 0
0.015958 0.001117 0
0.016471 0.000873 0
0.016930 0.000624 0
0.017321 0.000373 0
0.017625 0.000125 0
0.017822 -0.000116 0
0.017887 -0.000343 0
0.017792 -0.000550 0
0.017507 -0.000729 0
0.016999 -0.000873 0
0.016237 -0.000971 0
0.015192 -0.001018 0
0.013842 -0.001007 0
0.012177 -0.000936 0
0.010203 -0.000805 0
0.007943 -0.000620 0
0.005443 -0.000391 0
0.002768 -0.000134 0
0.000000 0.000000 0
0.000000 0.000000 0
0.000319 0.000410 0
0.000641 0.000812 0
0.000970 0.001202 0
0.001307 0.001572 0
0.001657 0.001919 0
0.002020 0.002238 0
0.002401 0.002527 0
0.002799 0.002784 0
0.003218 0.003007 0
0.003657 0.003196 0
0.004119 0.003352 0
0.004602 0.003476 0
0.005108 0.003568 0
0.005636 0.003631 0
0.006185 0.003665 0
0.006756 0.003673 0
0.007346 0.003656 0
0.007956 0.003616 0
0.008584 0.003555 0
0.009229 0.003473 0
0.009888 0.003372 0
0.010562 0.003252 0
0.011247 0.003115 0
0.011941 0.002962 0
0.012643 0.002792 0
0.013349 0.002607 0
0.014057 0.002406 0
0.014761 0.002190 0
0.015459 0.001960 0
0.016143 0.001717 0
0.016807 0.001461 0
0.017443 0.001193 0
0.018040 0.000916 0
0.018584 0.000632 0
0.019059 0.000344 0
0.019447 0.000057 0
0.019724 -0.000224 0
0.019861 -0.000491 0
0.019826 -0.000736 0
0.019583 -0.000950 0
0.019093 -0.001123 0
0.018314 -0.001243 0
0.017209 -0.001300 0
0.015747 -0.001286 0
0.013909 -0.001197 0
0.011696 -0.001031 0
0.009133 -0.000795 0
0.006273 -0.000503 0
0.003195 -0.000172 0
0.000000 0.000000 0
0.000000 0.000000 0
0.000328 0.000466 0
0.000660 0.000924 0
0.000999 0.001366 0
0.001349 0.001786 0
0.001713 0.002176 0
0.002095 0.002534 0
0.002496 0.002855 0
0.002918 0.003139 0
0.003364 0.003383 0
0.003835 0.003589 0
0.004330 0.003756 0
0.004852 0.003886 0
0.005399 0.003981 0
0.005971 0.004043 0
0.006568 0.004073 0
0.007189 0.004075 0
0.007833 0.004049 0
0.008499 0.003999 0
0.009185 0.003925 0
0.009890 0.003829 0
0.010613 0.003713 0
0.011352 0.003577 0
0.012104 0.003423 0
0.012868 0.003250 0
0.013642 0.003061 0
0.014422 0.002854 0
0.015206 0.002630 0
0.015990 0.002390 0
0.016769 0.002133 0
0.017538 0.001861 0
0.018290 0.001573 0
0.019016 0.001271 0
0.019706 0.000957 0
0.020346 0.000633 0
0.020919 0.000303 0
0.021405 -0.000029 0
0.021777 -0.000356 0
0.022004 -0.000670 0
0.022048 -0.000962 0
0.021867 -0.001219 0
0.021413 -0.001428 0
0.020634 -0.001576 0
0.019480 -0.001649 0
0.017909 -0.001634 0
0.015890 -0.001524 0
0.013417 -0.001316 0
0.010514 -0.001018 0
0.007241 -0.000645 0
0.003694 -0.000221 0
0.000000 0.000000 0
0.000000 0.000000 0
0.000334 0.000532 0
0.000672 0.001054 0
0.001019 0.001557 0
0.001380 0.002031 0
0.001757 0.002471 0
0.002154 0.002872 0
0.002575 0.003229 0
0.003022 0.003542 0
0.003496 0.003809 0
0.003998 0.004030 0
0.004530 0.004208 0
0.005092 0.004343 0
0.005683 0.004439 0
0.006303 0.004498 0
0.006951 0.004522 0
0.007627 0.004515 0
0.008328 0.004478 0
0.009055 0.004415 0
0.009804 0.004326 0
0.010575 0.004215 0
0.011366 0.004081 0
0.012175 0.003927 0
0.013000 0.003754 0
0.013839 0.003561 0
0.014690 0.003349 0
0.015550 0.003119 0
0.016417 0.002871 0
0.017286 0.002604 0
0.018153 0.002318 0
0.019014 0.002014 0
0.019862 0.001692 0
0.020687 0.001352 0
0.021481 0.000997 0
0.022228 0.000628 0
0.022912 0.000250 0
0.023510 -0.000134 0
0.023995 -0.000515 0
0.024331 -0.000885 0
0.024476 -0.001233 0
0.024381 -0.001543 0
0.023986 -0.001800 0
0.023229 -0.001986 0
0.022043 -0.002080 0
0.020370 -0.002067 0
0.018165 -0.001935 0
0.015409 -0.001677 0
0.012123 -0.001301 0
0.008375 -0.000826 0
0.004282 -0.000283 0
0.000000 0.000000 0
0.000000 0.000000 0
0.000336 0.000609 0
0.000676 0.001206 0
0.001028 0.001778 0
0.001396 0.002316 0
0.001784 0.002812 0
0.002196 0.003261 0
0.002636 0.003658 0
0.003107 0.004002 0
0.003609 0.004292 0
0.004146 0.004529 0
0.004716 0.004716 0
0.005321 0.004855 0
0.005959 0.004949 0
0.006631 0.005003 0
0.007335 0.005018 0