# vtk DataFile Version 2.0
generated by CFD-lab course output (written by Tobias Neckel) 
ASCII

DATASET STRUCTURED_GRID
DIMENSIONS  51 51 1 
POINTS 2601 float

0.000000 0.000000 0
0.020000 0.000000 0
0.040000 0.000000 0
0.060000 0.000000 0
0.080000 0.000000 0
0.100000 0.000000 0
0.120000 0.000000 0
0.140000 0.000000 0
0.160000 0.000000 0
0.180000 0.000000 0
0.200000 0.000000 0
0.220000 0.000000 0
0.240000 0.000000 0
0.260000 0.000000 0
0.280000 0.000000 0
0.300000 0.000000 0
0.320000 0.000000 0
0.340000 0.000000 0
0.360000 0.000000 0
0.380000 0.000000 0
0.400000 0.000000 0
0.420000 0.000000 0
0.440000 0.000000 0
0.460000 0.000000 0
0.480000 0.000000 0
0.500000 0.000000 0
0.520000 0.000000 0
0.540000 0.000000 0
0.560000 0.000000 0
0.580000 0.000000 0
0.600000 0.000000 0
0.620000 0.000000 0
0.640000 0.000000 0
0.660000 0.000000 0
0.680000 0.000000 0
0.700000 0.000000 0
0.720000 0.000000 0
0.740000 0.000000 0
0.760000 0.000000 0
0.780000 0.000000 0
0.800000 0.000000 0
0.820000 0.000000 0
0.840000 0.000000 0
0.860000 0.000000 0
0.880000 0.000000 0
0.900000 0.000000 0
0.920000 0.000000 0
0.940000 0.000000 0
0.960000 0.000000 0
0.980000 0.000000 0
1.000000 0.000000 0
0.000000 0.020000 0
0.020000 0.020000 0
0.040000 0.020000 0
0.060000 0.020000 0
0.080000 0.020000 0
0.100000 0.020000 0
0.120000 0.020000 0
0.140000 0.020000 0
0.160000 0.020000 0
0.180000 0.020000 0
0.200000 0.020000 0
0.220000 0.020000 0
0.240000 0.020000 0
0.260000 0.020000 0
0.280000 0.020000 0
0.300000 0.020000 0
0.320000 0.020000 0
0.340000 0.020000 0
0.360000 0.020000 0
0.380000 0.020000 0
0.400000 0.020000 0
0.420000 0.020000 0
0.440000 0.020000 0
0.460000 0.020000 0
0.480000 0.020000 0
0.500000 0.020000 0
0.520000 0.020000 0
0.540000 0.020000 0
0.560000 0.020000 0
0.580000 0.020000 0
0.600000 0.020000 0
0.620000 0.020000 0
0.640000 0.020000 0
0.660000 0.020000 0
0.680000 0.020000 0
0.700000 0.020000 0
0.720000 0.020000 0
0.740000 0.020000 0
0.760000 0.020000 0
0.780000 0.020000 0
0.800000 0.020000 0
0.820000 0.020000 0
0.840000 0.020000 0
0.860000 0.020000 0
0.880000 0.020000 0
0.900000 0.020000 0
0.920000 0.020000 0
0.940000 0.020000 0
0.960000 0.020000 0
0.980000 0.020000 0
1.000000 0.020000 0
0.000000 0.040000 0
0.020000 0.040000 0
0.040000 0.040000 0
0.060000 0.040000 0
0.080000 0.040000 0
0.100000 0.040000 0
0.120000 0.040000 0
0.140000 0.040000 0
0.160000 0.040000 0
0.180000 0.040000 0
0.200000 0.040000 0
0.220000 0.040000 0
0.240000 0.040000 0
0.260000 0.040000 0
0.280000 0.040000 0
0.300000 0.040000 0
0.320000 0.040000 0
0.340000 0.040000 0
0.360000 0.040000 0
0.380000 0.040000 0
0.400000 0.040000 0
0.420000 0.040000 0
0.440000 0.040000 0
0.460000 0.040000 0
0.480000 0.040000 0
0.500000 0.040000 0
0.520000 0.040000 0
0.540000 0.040000 0
0.560000 0.040000 0
0.580000 0.040000 0
0.600000 0.040000 0
0.620000 0.040000 0
0.640000 0.040000 0
0.660000 0.040000 0
0.680000 0.040000 0
0.700000 0.040000 0
0.720000 0.040000 0
0.740000 0.040000 0
0.760000 0.040000 0
0.780000 0.040000 0
0.800000 0.040000 0
0.820000 0.040000 0
0.840000 0.040000 0
0.860000 0.040000 0
0.880000 0.040000 0
0.900000 0.040000 0
0.920000 0.040000 0
0.940000 0.040000 0
0.960000 0.040000 0
0.980000 0.040000 0
1.000000 0.040000 0
0.000000 0.060000 0
0.020000 0.060000 0
0.040000 0.060000 0
0.060000 0.060000 0
0.080000 0.060000 0
0.100000 0.060000 0
0.120000 0.060000 0
0.140000 0.060000 0
0.160000 0.060000 0
0.180000 0.060000 0
0.200000 0.060000 0
0.220000 0.060000 0
0.240000 0.060000 0
0.260000 0.060000 0
0.280000 0.060000 0
0.300000 0.060000 0
0.320000 0.060000 0
0.340000 0.060000 0
0.360000 0.060000 0
0.380000 0.060000 0
0.400000 0.060000 0
0.420000 0.060000 0
0.440000 0.060000 0
0.460000 0.060000 0
0.480000 0.060000 0
0.500000 0.060000 0
0.520000 0.060000 0
0.540000 0.060000 0
0.560000 0.060000 0
0.580000 0.060000 0
0.600000 0.060000 0
0.620000 0.060000 0
0.640000 0.060000 0
0.660000 0.060000 0
0.680000 0.060000 0
0.700000 0.060000 0
0.720000 0.060000 0
0.740000 0.060000 0
0.760000 0.060000 0
0.780000 0.060000 0
0.800000 0.060000 0
0.820000 0.060000 0
0.840000 0.060000 0
0.860000 0.060000 0
0.880000 0.060000 0
0.900000 0.060000 0
0.920000 0.060000 0
0.940000 0.060000 0
0.960000 0.060000 0
0.980000 0.060000 0
1.000000 0.060000 0
0.000000 0.080000 0
0.020000 0.080000 0
0.040000 0.080000 0
0.060000 0.080000 0
0.080000 0.080000 0
0.100000 0.080000 0
0.120000 0.080000 0
0.140000 0.080000 0
0.160000 0.080000 0
0.180000 0.080000 0
0.200000 0.080000 0
0.220000 0.080000 0
0.240000 0.080000 0
0.260000 0.080000 0
0.280000 0.080000 0
0.300000 0.080000 0
0.320000 0.080000 0
0.340000 0.080000 0
0.360000 0.080000 0
0.380000 0.080000 0
0.400000 0.080000 0
0.420000 0.080000 0
0.440000 0.080000 0
0.460000 0.080000 0
0.480000 0.080000 0
0.500000 0.080000 0
0.520000 0.080000 0
0.540000 0.080000 0
0.560000 0.080000 0
0.580000 0.080000 0
0.600000 0.080000 0
0.620000 0.080000 0
0.640000 0.080000 0
0.660000 0.080000 0
0.680000 0.080000 0
0.700000 0.080000 0
0.720000 0.080000 0
0.740000 0.080000 0
0.760000 0.080000 0
0.780000 0.080000 0
0.800000 0.080000 0
0.820000 0.080000 0
0.840000 0.080000 0
0.860000 0.080000 0
0.880000 0.080000 0
0.900000 0.080000 0
0.920000 0.080000 0
0.940000 0.080000 0
0.960000 0.080000 0
0.980000 0.080000 0
1.000000 0.080000 0
0.000000 0.100000 0
0.020000 0.100000 0
0.040000 0.100000 0
0.060000 0.100000 0
0.080000 0.100000 0
0.100000 0.100000 0
0.120000 0.100000 0
0.140000 0.100000 0
0.160000 0.100000 0
0.180000 0.100000 0
0.200000 0.100000 0
0.220000 0.100000 0
0.240000 0.100000 0
0.260000 0.100000 0
0.280000 0.100000 0
0.300000 0.100000 0
0.320000 0.100000 0
0.340000 0.100000 0
0.360000 0.100000 0
0.380000 0.100000 0
0.400000 0.100000 0
0.420000 0.100000 0
0.440000 0.100000 0
0.460000 0.100000 0
0.480000 0.100000 0
0.500000 0.100000 0
0.520000 0.100000 0
0.540000 0.100000 0
0.560000 0.100000 0
0.580000 0.100000 0
0.600000 0.100000 0
0.620000 0.100000 0
0.640000 0.100000 0
0.660000 0.100000 0
0.680000 0.100000 0
0.700000 0.100000 0
0.720000 0.100000 0
0.740000 0.100000 0
0.760000 0.100000 0
0.780000 0.100000 0
0.800000 0.100000 0
0.820000 0.100000 0
0.840000 0.100000 0
0.860000 0.100000 0
0.880000 0.100000 0
0.900000 0.100000 0
0.920000 0.100000 0
0.940000 0.100000 0
0.960000 0.100000 0
0.980000 0.100000 0
1.000000 0.100000 0
0.000000 0.120000 0
0.020000 0.120000 0
0.040000 0.120000 0
0.060000 0.120000 0
0.080000 0.120000 0
0.100000 0.120000 0
0.120000 0.120000 0
0.140000 0.120000 0
0.160000 0.120000 0
0.180000 0.120000 0
0.200000 0.120000 0
0.220000 0.120000 0
0.240000 0.120000 0
0.260000 0.120000 0
0.280000 0.120000 0
0.300000 0.120000 0
0.320000 0.120000 0
0.340000 0.120000 0
0.360000 0.120000 0
0.380000 0.120000 0
0.400000 0.120000 0
0.420000 0.120000 0
0.440000 0.120000 0
0.460000 0.120000 0
0.480000 0.120000 0
0.500000 0.120000 0
0.520000 0.120000 0
0.540000 0.120000 0
0.560000 0.120000 0
0.580000 0.120000 0
0.600000 0.120000 0
0.620000 0.120000 0
0.640000 0.120000 0
0.660000 0.120000 0
0.680000 0.120000 0
0.700000 0.120000 0
0.720000 0.120000 0
0.740000 0.120000 0
0.760000 0.120000 0
0.780000 0.120000 0
0.800000 0.120000 0
0.820000 0.120000 0
0.840000 0.120000 0
0.860000 0.120000 0
0.880000 0.120000 0
0.900000 0.120000 0
0.920000 0.120000 0
0.940000 0.120000 0
0.960000 0.120000 0
0.980000 0.120000 0
1.000000 0.120000 0
0.000000 0.140000 0
0.020000 0.140000 0
0.040000 0.140000 0
0.060000 0.140000 0
0.080000 0.140000 0
0.100000 0.140000 0
0.120000 0.140000 0
0.140000 0.140000 0
0.160000 0.140000 0
0.180000 0.140000 0
0.200000 0.140000 0
0.220000 0.140000 0
0.240000 0.140000 0
0.260000 0.140000 0
0.280000 0.140000 0
0.300000 0.140000 0
0.320000 0.140000 0
0.340000 0.140000 0
0.360000 0.140000 0
0.380000 0.140000 0
0.400000 0.140000 0
0.420000 0.140000 0
0.440000 0.140000 0
0.460000 0.140000 0
0.480000 0.140000 0
0.500000 0.140000 0
0.520000 0.140000 0
0.540000 0.140000 0
0.560000 0.140000 0
0.580000 0.140000 0
0.600000 0.140000 0
0.620000 0.140000 0
0.640000 0.140000 0
0.660000 0.140000 0
0.680000 0.140000 0
0.700000 0.140000 0
0.720000 0.140000 0
0.740000 0.140000 0
0.760000 0.140000 0
0.780000 0.140000 0
0.800000 0.140000 0
0.820000 0.140000 0
0.840000 0.140000 0
0.860000 0.140000 0
0.880000 0.140000 0
0.900000 0.140000 0
0.920000 0.140000 0
0.940000 0.140000 0
0.960000 0.140000 0
0.980000 0.140000 0
1.000000 0.140000 0
0.000000 0.160000 0
0.020000 0.160000 0
0.040000 0.160000 0
0.060000 0.160000 0
0.080000 0.160000 0
0.100000 0.160000 0
0.120000 0.160000 0
0.140000 0.160000 0
0.160000 0.160000 0
0.180000 0.160000 0
0.200000 0.160000 0
0.220000 0.160000 0
0.240000 0.160000 0
0.260000 0.160000 0
0.280000 0.160000 0
0.300000 0.160000 0
0.320000 0.160000 0
0.340000 0.160000 0
0.360000 0.160000 0
0.380000 0.160000 0
0.400000 0.160000 0
0.420000 0.160000 0
0.440000 0.160000 0
0.460000 0.160000 0
0.480000 0.160000 0
0.500000 0.160000 0
0.520000 0.160000 0
0.540000 0.160000 0
0.560000 0.160000 0
0.580000 0.160000 0
0.600000 0.160000 0
0.620000 0.160000 0
0.640000 0.160000 0
0.660000 0.160000 0
0.680000 0.160000 0
0.700000 0.160000 0
0.720000 0.160000 0
0.740000 0.160000 0
0.760000 0.160000 0
0.780000 0.160000 0
0.800000 0.160000 0
0.820000 0.160000 0
0.840000 0.160000 0
0.860000 0.160000 0
0.880000 0.160000 0
0.900000 0.160000 0
0.920000 0.160000 0
0.940000 0.160000 0
0.960000 0.160000 0
0.980000 0.160000 0
1.000000 0.160000 0
0.000000 0.180000 0
0.020000 0.180000 0
0.040000 0.180000 0
0.060000 0.180000 0
0.080000 0.180000 0
0.100000 0.180000 0
0.120000 0.180000 0
0.140000 0.180000 0
0.160000 0.180000 0
0.180000 0.180000 0
0.200000 0.180000 0
0.220000 0.180000 0
0.240000 0.180000 0
0.260000 0.180000 0
0.280000 0.180000 0
0.300000 0.180000 0
0.320000 0.180000 0
0.340000 0.180000 0
0.360000 0.180000 0
0.380000 0.180000 0
0.400000 0.180000 0
0.420000 0.180000 0
0.440000 0.180000 0
0.460000 0.180000 0
0.480000 0.180000 0
0.500000 0.180000 0
0.520000 0.180000 0
0.540000 0.180000 0
0.560000 0.180000 0
0.580000 0.180000 0
0.600000 0.180000 0
0.620000 0.180000 0
[...]
POINT_DATA 2601 

VECTORS velocity float
0.000000 0.000000 0
0.000000 0.000000 0
0.000000 0.000000 0
0.000000 0.000000 0
0.000000 0.000000 0
0.000000 0.000000 0
0.000000 0.000000 0
-0.000000 0.000000 0
-0.000000 0.000000 0
-0.000000 0.000000 0
-0.000000 0.000000 0
-0.000000 0.000000 0
-0.000000 0.000000 0
-0.000000 0.000000 0
-0.000000 0.000000 0
-0.000000 0.000000 0
-0.000000 0.000000 0
-0.000000 0.000000 0
-0.000000 0.000000 0
-0.000000 0.000000 0
-0.000000 0.000000 0
-0.000000 0.000000 0
-0.000000 0.000000 0
-0.000000 0.000000 0
-0.000000 0.000000 0
-0.000000 0.000000 0
-0.000000 0.000000 0
-0.000000 0.000000 0
-0.000000 0.000000 0
-0.000000 0.000000 0
-0.000000 0.000000 0
-0.000000 0.000000 0
-0.000000 0.000000 0
-0.000000 0.000000 0
-0.000000 0.000000 0
-0.000000 0.000000 0
-0.000000 0.000000 0
-0.000000 0.000000 0
-0.000000 0.000000 0
-0.000000 0.000000 0
-0.000000 0.000000 0
-0.000000 0.000000 0
-0.000000 0.000000 0
-0.000000 0.000000 0
-0.000000 0.000000 0
-0.000000 0.000000 0
-0.000000 0.000000 0
-0.000000 0.000000 0
-0.000000 0.000000 0
-0.000000 0.000000 0
0.000000 0.000000 0
0.000000 0.000000 0
0.000024 0.000015 0
0.000047 0.000030 0
0.000071 0.000045 0
0.000095 0.000060 0
0.000120 0.000073 0
0.000144 0.000086 0
0.000170 0.000098 0
0.000195 0.000110 0
0.000222 0.000120 0
0.000248 0.000129 0
0.000276 0.000137 0
0.000304 0.000144 0
0.000333 0.000149 0
0.000363 0.000154 0
0.000393 0.000157 0
0.000424 0.000159 0
0.000455 0.000160 0
0.000487 0.000160 0
0.000519 0.000158 0
0.000552 0.000156 0
0.000584 0.000153 0
0.000617 0.000148 0
0.000650 0.000143 0
0.000682 0.000137 0
0.000714 0.000130 0
0.000744 0.000123 0
0.000774 0.000115 0
0.000802 0.000106 0
0.000827 0.000097 0
0.000850 0.000088 0
0.000870 0.000078 0
0.000887 0.000068 0
0.000899 0.000058 0
0.000906 0.000049 0
0.000908 0.000039 0
0.000903 0.000031 0
0.000891 0.000022 0
0.000872 0.000015 0
0.000844 0.000008 0
0.000808 0.000002 0
0.000762 -0.000002 0
0.000708 -0.000006 0
0.000644 -0.000008 0
0.000571 -0.000009 0
0.000491 -0.000009 0
0.000402 -0.000008 0
0.000308 -0.000006 0
0.000208 -0.000004 0
0.000105 -0.000001 0
0.000000 0.000000 0
0.000000 0.000000 0
0.000047 0.000031 0
0.000094 0.000061 0
0.000142 0.000091 0
0.000190 0.000120 0
0.000239 0.000147 0
0.000288 0.000173 0
0.000339 0.000198 0
0.000390 0.000220 0
0.000443 0.000241 0
0.000496 0.000259 0
0.000551 0.000275 0
0.000608 0.000289 0
0.000666 0.000300 0
0.000725 0.000309 0
0.000785 0.000315 0
0.000847 0.000319 0
0.000910 0.000321 0
0.000974 0.000321 0
0.001038 0.000318 0
0.001104 0.000313 0
0.001169 0.000307 0
0.001235 0.000298 0
0.001301 0.000287 0
0.001365 0.000275 0
0.001429 0.000262 0
0.001490 0.000246 0
0.001550 0.000230 0
0.001606 0.000213 0
0.001657 0.000194 0
0.001704 0.000175 0
0.001745 0.000156 0
0.001778 0.000136 0
0.001803 0.000117 0
0.001818 0.000097 0
0.001822 0.000078 0
0.001813 0.000061 0
0.001790 0.000044 0
0.001752 0.000029 0
0.001697 0.000015 0
0.001624 0.000004 0
0.001534 -0.000005 0
0.001424 -0.000012 0
0.001297 -0.000017 0
0.001151 -0.000019 0
0.000988 -0.000019 0
0.000811 -0.000017 0
0.000620 -0.000013 0
0.000419 -0.000009 0
0.000211 -0.000003 0
0.000000 0.000000 0
0.000000 0.000000 0
0.000071 0.000047 0
0.000141 0.000093 0
0.000213 0.000138 0
0.000285 0.000181 0
0.000357 0.000223 0
0.000431 0.000263 0
0.000507 0.000299 0
0.000584 0.000333 0
0.000663 0.000364 0
0.000743 0.000392 0
0.000826 0.000416 0
0.000911 0.000436 0
0.000997 0.000453 0
0.001086 0.000467 0
0.001177 0.000476 0
0.001270 0.000482 0
0.001364 0.000485 0
0.001460 0.000484 0
0.001558 0.000480 0
0.001656 0.000473 0
0.001755 0.000463 0
0.001854 0.000449 0
0.001953 0.000434 0
0.002051 0.000415 0
0.002147 0.000394 0
0.002240 0.000372 0
0.002330 0.000347 0
0.002415 0.000320 0
0.002493 0.000293 0
0.002565 0.000264 0
0.002627 0.000234 0
0.002679 0.000204 0
0.002717 0.000175 0
0.002741 0.000145 0
0.002749 0.000117 0
0.002737 0.000089 0
0.002704 0.000064 0
0.002648 0.000041 0
0.002566 0.000021 0
0.002459 0.000003 0
0.002323 -0.000011 0
0.002159 -0.000021 0
0.001966 -0.000028 0
0.001746 -0.000031 0
0.001500 -0.000031 0
0.001231 -0.000027 0
0.000942 -0.000022 0
0.000637 -0.000014 0
0.000321 -0.000005 0
0.000000 0.000000 0
0.000000 0.000000 0
0.000094 0.000063 0
0.000188 0.000125 0
0.000282 0.000186 0
0.000378 0.000245 0
0.000475 0.000301 0
0.000574 0.000354 0
0.000674 0.000404 0
0.000777 0.000450 0
0.000882 0.000491 0
0.000989 0.000528 0
0.001099 0.000561 0
0.001212 0.000588 0
0.001328 0.000611 0
0.001447 0.000629 0
0.001568 0.000642 0
0.001692 0.000650 0
0.001818 0.000653 0
0.001947 0.000652 0
0.002078 0.000646 0
0.002209 0.000636 0
0.002342 0.000622 0
0.002476 0.000604 0
0.002608 0.000583 0
0.002740 0.000558 0
0.002869 0.000530 0
0.002995 0.000499 0
0.003116 0.000465 0
0.003231 0.000430 0
0.003339 0.000392 0
0.003436 0.000353 0
0.003522 0.000313 0
0.003593 0.000273 0
0.003647 0.000232 0
0.003682 0.000192 0
0.003695 0.000154 0
0.003682 0.000117 0
0.003641 0.000082 0
0.003568 0.000051 0
0.003462 0.000023 0
0.003319 -0.000001 0
0.003139 -0.000020 0
0.002920 -0.000034 0
0.002662 -0.000042 0
0.002366 -0.000046 0
0.002034 -0.000046 0
0.001670 -0.000040 0
0.001278 -0.000032 0
0.000865 -0.000020 0
0.000436 -0.000007 0
0.000000 0.000000 0
0.000000 0.000000 0
0.000117 0.000080 0
0.000234 0.000159 0
0.000351 0.000236 0
0.000471 0.000311 0
0.000591 0.000383 0
0.000714 0.000450 0
0.000840 0.000513 0
0.000968 0.000571 0
0.001099 0.000624 0
0.001233 0.000670 0
0.001371 0.000711 0
0.001512 0.000746 0
0.001657 0.000774 0
0.001806 0.000796 0
0.001958 0.000812 0
0.002114 0.000822 0
0.002273 0.000826 0
0.002434 0.000824 0
0.002598 0.000817 0
0.002765 0.000804 0
0.002932 0.000786 0
0.003100 0.000763 0
0.003268 0.000736 0
0.003434 0.000704 0
0.003598 0.000669 0
0.003758 0.000629 0
0.003912 0.000587 0
0.004059 0.000541 0
0.004196 0.000494 0
0.004322 0.000444 0
0.004433 0.000393 0
0.004526 0.000341 0
0.004598 0.000289 0
0.004647 0.000238 0
0.004667 0.000189 0
0.004655 0.000141 0
0.004608 0.000097 0
0.004521 0.000057 0
0.004392 0.000021 0
0.004216 -0.000009 0
0.003991 -0.000033 0
0.003716 -0.000051 0
0.003392 -0.000062 0
0.003017 -0.000066 0
0.002597 -0.000064 0
0.002134 -0.000057 0
0.001634 -0.000044 0
0.001106 -0.000028 0
0.000558 -0.000010 0
0.000000 0.000000 0
0.000000 0.000000 0
0.000139 0.000098 0
0.000279 0.000195 0
0.000420 0.000289 0
0.000562 0.000381 0
0.000706 0.000468 0
0.000853 0.000551 0
0.001003 0.000628 0
0.001156 0.000698 0
0.001314 0.000762 0
0.001475 0.000819 0
0.001640 0.000869 0
0.001810 0.000910 0
0.001985 0.000945 0
0.002164 0.000971 0
0.002347 0.000990 0
0.002535 0.001002 0
0.002727 0.001006 0
0.002922 0.001004 0
0.003121 0.000994 0
0.003322 0.000978 0
0.003525 0.000956 0
0.003729 0.000928 0
0.003933 0.000894 0
0.004135 0.000855 0
0.004335 0.000812 0
0.004530 0.000764 0
0.004719 0.000711 0
0.004900 0.000656 0
0.005070 0.000597 0
0.005225 0.000536 0
0.005364 0.000473 0
0.005482 0.000410 0
0.005576 0.000346 0
0.005640 0.000283 0
0.005671 0.000222 0
0.005664 0.000163 0
0.005614 0.000108 0
0.005516 0.000058 0
0.005365 0.000014 0
0.005157 -0.000023 0
0.004889 -0.000053 0
0.004559 -0.000075 0
0.004166 -0.000088 0
0.003711 -0.000092 0
0.003197 -0.000089 0
0.002629 -0.000078 0
0.002016 -0.000060 0
0.001365 -0.000038 0
0.000689 -0.000013 0
0.000000 0.000000 0
0.000000 0.000000 0
0.000161 0.000117 0
0.000323 0.000233 0
0.000486 0.000346 0
0.000651 0.000455 0
0.000819 0.000560 0
0.000990 0.000658 0
0.001164 0.000749 0
0.001343 0.000833 0
0.001526 0.000909 0
0.001714 0.000976 0
0.001907 0.001035 0
0.002106 0.001084 0
0.002310 0.001124 0
0.002520 0.001155 0
0.002736 0.001177 0
0.002956 0.001190 0
0.003181 0.001195 0
0.003411 0.001191 0
0.003645 0.001179 0
0.003882 0.001160 0
0.004122 0.001133 0
0.004363 0.001099 0
0.004604 0.001059 0
0.004845 0.001012 0
0.005082 0.000960 0
0.005315 0.000903 0
0.005541 0.000840 0
0.005758 0.000774 0
0.005962 0.000703 0
0.006151 0.000630 0
0.006321 0.000555 0
0.006467 0.000479 0
0.006585 0.000402 0
0.006670 0.000326 0
0.006715 0.000252 0
0.006716 0.000181 0
0.006667 0.000114 0
0.006560 0.000053 0
0.006391 -0.000000 0
0.006153 -0.000045 0
0.005843 -0.000081 0
0.005457 -0.000107 0
0.004994 -0.000122 0
0.004455 -0.000126 0
0.003843 -0.000120 0
0.003164 -0.000105 0
0.002428 -0.000081 0
0.001646 -0.000051 0
0.000831 -0.000017 0
0.000000 0.000000 0
0.000000 0.000000 0
0.000183 0.000138 0
0.000366 0.000274 0
0.000552 0.000407 0
0.000739 0.000535 0
0.000929 0.000657 0
0.001124 0.000773 0
0.001322 0.000880 0
0.001526 0.000978 0
0.001735 0.001066 0
0.001950 0.001144 0
0.002172 0.001211 0
0.002400 0.001268 0
0.002634 0.001314 0
0.002875 0.001350 0
0.003123 0.001375 0
0.003377 0.001389 0
0.003637 0.001394 0
0.003902 0.001389 0
0.004172 0.001374 0
0.004447 0.001351 0
0.004724 0.001319 0
0.005004 0.001279 0
0.005284 0.001231 0
0.005564 0.001176 0
0.005841 0.001115 0
0.006114 0.001047 0
0.006379 0.000974 0
0.006635 0.000895 0
0.006877 0.000813 0
0.007103 0.000727 0
0.007307 0.000638 0
0.007485 0.000547 0
0.007631 0.000456 0
0.007740 0.000366 0
0.007805 0.000278 0
0.007819 0.000193 0
0.007775 0.000114 0
0.007664 0.000041 0
0.007479 -0.000023 0
0.007215 -0.000077 0
0.006864 -0.000120 0
0.006422 -0.000150 0
0.005888 -0.000167 0
0.005261 -0.000170 0
0.004545 -0.000161 0
0.003747 -0.000139 0
0.002879 -0.000107 0
0.001953 -0.000068 0
0.000987 -0.000023 0
0.000000 0.000000 0
0.000000 0.000000 0
0.000204 0.000160 0
0.000408 0.000318 0
0.000615 0.000473 0
0.000824 0.000622 0
0.001037 0.000763 0
0.001255 0.000897 0
0.001477 0.001020 0
0.001706 0.001133 0
0.001941 0.001234 0
0.002183 0.001324 0
0.002433 0.001401 0
0.002690 0.001465 0
0.002955 0.001518 0
0.003228 0.001557 0
0.003509 0.001585 0
0.003797 0.001601 0
0.004093 0.001605 0
0.004395 0.001598 0
0.004703 0.001580 0
0.005016 0.001552 0
0.005333 0.001514 0
0.005653 0.001468 0
0.005975 0.001412 0
0.006296 0.001348 0
0.006615 0.001277 0
0.006930 0.001198 0
0.007238 0.001113 0
0.007535 0.001022 0
0.007819 0.000926 0
0.008084 0.000826 0
0.008327 0.000722 0
0.008541 0.000616 0
0.008721 0.000510 0
0.008860 0.000404 0
0.008949 0.000300 0
0.008981 0.000200 0
0.008946 0.000106 0
0.008836 0.000020 0
0.008641 -0.000056 0
0.008353 -0.000120 0
0.007964 -0.000170 0
0.007467 -0.000205 0
0.006859 -0.000224 0
0.006141 -0.000226 0
0.005315 -0.000212 0
0.004389 -0.000183 0
0.003375 -0.000141 0
0.002292 -0.000089 0
0.001159 -0.000030 0
0.000000 0.000000 0
0.000000 0.000000 0
0.000224 0.000185 0
0.000449 0.000367 0
0.000676 0.000545 0
0.000907 0.000716 0
0.001142 0.000879 0
0.001382 0.001032 0
0.001628 0.001173 0
0.001882 0.001301 0
0.002143 0.001417 0
0.002412 0.001518 0
0.002691 0.001605 0
0.002978 0.001678 0
0.003274 0.001736 0
0.003580 0.001780 0
0.003895 0.001810 0
0.004218 0.001826 0
0.004550 0.001829 0
0.004890 0.001820 0
0.005237 0.001799 0
0.005591 0.001766 0
0.005949 0.001722 0
0.006312 0.001667 0
0.006677 0.001603 0
0.007042 0.001529 0
0.007406 0.001447 0
0.007766 0.001357 0
0.008119 0.001259 0
0.008462 0.001154 0
0.008790 0.001043 0
0.009100 0.000928 0
0.009386 0.000808 0
0.009641 0.000686 0
0.009860 0.000562 0
0.010033 0.000438 0
0.010153 0.000317 0
0.010209 0.000200 0
0.010191 0.000090 0
0.010088 -0.000012 0
0.009888 -0.000102 0
0.009580 -0.000177 0
0.009155 -0.000236 0
0.008604 -0.000277 0
0.007923 -0.000298 0
0.007108 -0.000298 0
0.006164 -0.000278 0
0.005099 -0.000239 0
0.003927 -0.000184 0
0.002669 -0.000116 0
0.001351 -0.000039 0
0.000000 0.000000 0
0.000000 0.000000 0
0.000243 0.000212 0
0.000488 0.000421 0
0.000735 0.000624 0
0.000986 0.000820 0
0.001242 0.001006 0
0.001505 0.001180 0
0.001775 0.001340 0
0.002053 0.001486 0
0.002340 0.001616 0
0.002637 0.001730 0
0.002944 0.001827 0
0.003262 0.001908 0
0.003590 0.001972 0
0.003930 0.002020 0
0.004279 0.002052 0
0.004640 0.002068 0
0.005010 0.002070 0
0.005389 0.002058 0
0.005777 0.002032 0
0.006173 0.001993 0
0.006575 0.001942 0
0.006982 0.001879 0
0.007392 0.001805 0
0.007804 0.001721 0
0.008216 0.001627 0
0.008624 0.001524 0
0.009026 0.001412 0
0.009418 0.001292 0
0.009796 0.001166 0
0.010154 0.001033 0
0.010488 0.000896 0
0.010791 0.000755 0
0.011054 0.000612 0
0.011269 0.000469 0
0.011426 0.000328 0
0.011513 0.000192 0
0.011518 0.000062 0
0.011429 -0.000057 0
0.011230 -0.000162 0
0.010909 -0.000252 0
0.010453 -0.000321 0
0.009850 -0.000369 0
0.009093 -0.000392 0
0.008178 -0.000389 0
0.007107 -0.000362 0
0.005891 -0.000310 0
0.004545 -0.000238 0
0.003093 -0.000150 0
0.001566 -0.000051 0
0.000000 0.000000 0
0.000000 0.000000 0
0.000262 0.000242 0
0.000525 0.000480 0
0.000791 0.000712 0
0.001062 0.000935 0
0.001339 0.001146 0
0.001623 0.001343 0
0.001916 0.001524 0
0.002218 0.001688 0
0.002532 0.001834 0
0.002856 0.001961 0
0.003193 0.002069 0
0.003542 0.002158 0
0.003903 0.002228 0
0.004277 0.002280 0
0.004663 0.002313 0
0.005062 0.002329 0
0.005472 0.002329 0
0.005893 0.002313 0
0.006323 0.002282 0
0.006763 0.002236 0
0.007211 0.002177 0
0.007665 0.002105 0
0.008124 0.002021 0
0.008586 0.001925 0
0.009048 0.001818 0
0.009508 0.001701 0
0.009962 0.001574 0
0.010408 0.001438 0
0.010839 0.001294 0
0.011252 0.001143 0
0.011639 0.000986 0
0.011994 0.000825 0
0.012309 0.000660 0
0.012573 0.000496 0
0.012774 0.000332 0
0.012901 0.000174 0
0.012939 0.000023 0
0.012871 -0.000117 0
0.012682 -0.000241 0
0.012355 -0.000346 0
0.011872 -0.000428 0
0.011220 -0.000484 0
0.010387 -0.000510 0
0.009368 -0.000504 0
0.008162 -0.000467 0
0.006780 -0.000400 0
0.005240 -0.000307 0
0.003571 -0.000193 0
0.001810 -0.000066 0
0.000000 0.000000 0
0.000000 0.000000 0
0.000279 0.000276 0
0.000559 0.000547 0
0.000843 0.000811 0
0.001133 0.001064 0
0.001430 0.001303 0
0.001735 0.001525 0
0.002051 0.001729 0
0.002378 0.001913 0
0.002717 0.002075 0
0.003070 0.002216 0
0.003436 0.002335 0
0.003817 0.002432 0
0.004213 0.002508 0
0.004623 0.002562 0
0.005047 0.002597 0
0.005485 0.002612 0
0.005937 0.002609 0
0.006401 0.002588 0
0.006877 0.002551 0
0.007364 0.002497 0
0.007860 0.002429 0
0.008364 0.002347 0
0.008875 0.002251 0
0.009389 0.002142 0
0.009906 0.002021 0
0.010421 0.001888 0
0.010932 0.001745 0
0.011435 0.001591 0
0.011925 0.001428 0
0.012397 0.001257 0
0.012844 0.001079 0
0.013259 0.000895 0
0.013632 0.000707 0
0.013952 0.000517 0
0.014207 0.000329 0
0.014383 0.000145 0
0.014462 -0.000031 0
0.014427 -0.000195 0
0.014257 -0.000341 0
0.013932 -0.000466 0
0.013430 -0.000563 0
0.012733 -0.000628 0
0.011826 -0.000657 0
0.010698 -0.000648 0
0.009348 -0.000600 0
0.007785 -0.000514 0
0.006030 -0.000394 0
0.004116 -0.000248 0
0.002088 -0.000085 0
0.000000 0.000000 0
0.000000 0.000000 0
0.000294 0.000313 0
0.000591 0.000622 0
0.000891 0.000922 0
0.001199 0.001208 0
0.001514 0.001478 0
0.001840 0.001729 0
0.002178 0.001957 0
0.002529 0.002162 0
0.002895 0.002343 0
0.003276 0.002498 0
0.003674 0.002628 0
0.004088 0.002733 0
0.004518 0.002814 0
0.004966 0.002871 0
0.005430 0.002906 0
0.005910 0.002919 0
0.006406 0.002912 0
0.006916 0.002885 0
0.007440 0.002841 0
0.007976 0.002778 0
0.008524 0.002700 0
0.009081 0.002606 0
0.009646 0.002497 0
0.010217 0.002374 0
0.010792 0.002238 0
0.011367 0.002089 0
0.011939 0.001927 0
0.012505 0.001754 0
0.013059 0.001571 0
0.013596 0.001377 0
0.014109 0.001175 0
0.014590 0.000966 0
0.015029 0.000751 0
0.015415 0.000534 0
0.015733 0.000317 0
0.015968 0.000104 0
0.016100 -0.000102 0
0.016109 -0.000293 0
0.015969 -0.000466 0
0.015657 -0.000614 0
0.015146 -0.000730 0
0.014411 -0.000808 0
0.013432 -0.000842 0
0.012192 -0.000829 0
0.010688 -0.000767 0
0.008926 -0.000657 0
0.006930 -0.000504 0
0.004739 -0.000318 0
0.002407 -0.000108 0
0.000000 0.000000 0
0.000000 0.000000 0
0.000308 0.000357 0
0.000619 0.000708 0
0.000934 0.001048 0
0.001258 0.001372 0
0.001591 0.001676 0
0.001937 0.001958 0
0.002296 0.002213 0
0.002672 0.002441 0
0.003064 0.002641 0
0.003474 0.002811 0
0.003904 0.002953 0
0.004352 0.003066 0
0.004820 0.003151 0
0.005307 0.003210 0
0.005813 0.003244 0
0.006337 0.003254 0
0.006879 0.003242 0
0.007438 0.003208 0
0.008013 0.003154 0
0.008602 0.003082 0
0.009205 0.002991 0
0.009819 0.002884 0
0.010443 0.002761 0
0.011074 0.002623 0
0.011711 0.002470 0
0.012350 0.002302 0
0.012988 0.002121 0
0.013621 0.001927 0
0.014245 0.001721 0
0.014853 0.001503 0
0.015439 0.001275 0
0.015994 0.001038 0
0.016509 0.000794 0
0.016969 0.000545 0
0.017361 0.000295 0
0.017667 0.000048 0
0.017865 -0.000191 0
0.017930 -0.000416 0
0.017835 -0.000621 0
0.017549 -0.000797 0
0.017040 -0.000936 0
0.016277 -0.001030 0
0.015229 -0.001071 0
0.013877 -0.001054 0
0.012208 -0.000976 0
0.010229 -0.000837 0
0.007963 -0.000644 0
0.005457 -0.000406 0
0.002775 -0.000139 0
0.000000 0.000000 0
0.000000 0.000000 0
0.000320 0.000406 0
0.000642 0.000805 0
0.000971 0.001191 0
0.001309 0.001558 0
0.001659 0.001901 0
0.002023 0.002217 0
0.002404 0.002502 0
0.002803 0.002755 0
0.003223 0.002975 0
0.003663 0.003161 0
0.004125 0.003314 0
0.004609 0.003434 0
0.005116 0.003524 0
0.005645 0.003583 0
0.006195 0.003615 0
0.006767 0.003620 0
0.007359 0.003601 0
0.007970 0.003558 0
0.008599 0.003494 0
0.009245 0.003410 0
0.009906 0.003306 0
0.010581 0.003184 0
0.011268 0.003045 0
0.011964 0.002890 0
0.012667 0.002718 0
0.013375 0.002531 0
0.014084 0.002329 0
0.014791 0.002112 0
0.015490 0.001881 0
0.016176 0.001637 0
0.016842 0.001380 0
0.017479 0.001112 0
0.018078 0.000835 0
0.018623 0.000551 0
0.019100 0.000264 0
0.019490 -0.000022 0
0.019767 -0.000301 0
0.019905 -0.000566 0
0.019871 -0.000809 0
0.019628 -0.001020 0
0.019136 -0.001189 0
0.018356 -0.001304 0
0.017249 -0.001356 0
0.015783 -0.001336 0
0.013941 -0.001239 0
0.011723 -0.001065 0
0.009155 -0.000820 0
0.006288 -0.000518 0
0.003203 -0.000177 0
0.000000 0.000000 0
0.000000 0.000000 0
0.000329 0.000463 0
0.000661 0.000917 0
0.001000 0.001355 0
0.001351 0.001771 0
0.001716 0.002158 0
0.002098 0.002512 0
0.002499 0.002830 0
0.002922 0.003110 0
0.003369 0.003351 0
0.003840 0.003553 0
0.004336 0.003717 0
0.004859 0.003844 0
0.005406 0.003936 0
0.005980 0.003995 0
0.006578 0.004022 0
0.007200 0.004021 0
0.007845 0.003993 0
0.008512 0.003939 0
0.009200 0.003863 0
0.009907 0.003765 0
0.010631 0.003646 0
0.011371 0.003508 0
0.012125 0.003352 0
0.012891 0.003177 0
0.013666 0.002986 0
0.014448 0.002777 0
0.015234 0.002552 0
0.016019 0.002311 0
0.016800 0.002053 0
0.017571 0.001779 0
0.018325 0.001491 0
0.019053 0.001189 0
0.019744 0.000874 0
0.020386 0.000551 0
0.020961 0.000221 0
0.021448 -0.000110 0
0.021821 -0.000436 0
0.022049 -0.000748 0
0.022094 -0.001037 0
0.021913 -0.001291 0
0.021458 -0.001497 0
0.020678 -0.001640 0
0.019522 -0.001707 0
0.017947 -0.001686 0
0.015924 -0.001568 0
0.013446 -0.001352 0
0.010537 -0.001044 0
0.007257 -0.000661 0
0.003703 -0.000226 0
0.000000 0.000000 0
0.000000 0.000000 0
0.000334 0.000528 0
0.000673 0.001047 0
0.001021 0.001545 0
0.001381 0.002016 0
0.001759 0.002453 0
0.002157 0.002850 0
0.002579 0.003204 0
0.003026 0.003513 0
0.003500 0.003776 0
0.004003 0.003994 0
0.004536 0.004169 0
0.005098 0.004301 0
0.005690 0.004394 0
0.006312 0.004449 0
0.006961 0.004471 0
0.007638 0.004461 0
0.008341 0.004421 0
0.009068 0.004355 0
0.009819 0.004264 0
0.010591 0.004150 0
0.011384 0.004014 0
0.012194 0.003858 0
0.013021 0.003682 0
0.013861 0.003487 0
0.014714 0.003274 0
0.015576 0.003042 0
0.016444 0.002792 0
0.017315 0.002523 0
0.018184 0.002237 0
0.019047 0.001932 0
0.019896 0.001609 0
0.020724 0.001269 0
0.021519 0.000913 0
0.022268 0.000545 0
0.022953 0.000167 0
0.023553 -0.000216 0
0.024039 -0.000596 0
0.024376 -0.000965 0
0.024522 -0.001310 0
0.024427 -0.001618 0
0.024032 -0.001871 0
0.023273 -0.002052 0
0.022086 -0.002141 0
0.020411 -0.002121 0
0.018201 -0.001981 0
0.015440 -0.001714 0
0.012147 -0.001329 0
0.008392 -0.000843 0
0.004290 -0.000289 0
0.000000 0.000000 0
0.000000 0.000000 0
0.000336 0.000605 0
0.000677 0.001198 0
0.001029 0.001767 0
0.001397 0.002301 0
0.001786 0.002794 0
0.002199 0.003239 0
0.002639 0.003632 0
0.003110 0.003972 0
0.003614 0.004259 0
0.004151 0.004493 0
0.004722 0.004677 0
0.005327 0.004812 0
0.005967 0.004904 0
0.006640 0.004954 0
0.007345 0.004966 0