# vtk DataFile Version 2.0
generated by CFD-lab course output (written by Tobias Neckel) 
ASCII

DATASET STRUCTURED_GRID
DIMENSIONS  51 51 1 
POINTS 2601 float

0.000000 0.000000 0
0.020000 0.000000 0
0.040000 0.000000 0
0.060000 0.000000 0
0.080000 0.000000 0
0.100000 0.000000 0
0.120000 0.000000 0
0.140000 0.000000 0
0.160000 0.000000 0
0.180000 0.000000 0
0.200000 0.000000 0
0.220000 0.000000 0
0.240000 0.000000 0
0.260000 0.000000 0
0.280000 0.000000 0
0.300000 0.000000 0
0.320000 0.000000 0
0.340000 0.000000 0
0.360000 0.000000 0
0.380000 0.000000 0
0.400000 0.000000 0
0.420000 0.000000 0
0.440000 0.000000 0
0.460000 0.000000 0
0.480000 0.000000 0
0.500000 0.000000 0
0.520000 0.000000 0
0.540000 0.000000 0
0.560000 0.000000 0
0.580000 0.000000 0
0.600000 0.000000 0
0.620000 0.000000 0
0.640000 0.000000 0
0.660000 0.000000 0
0.680000 0.000000 0
0.700000 0.000000 0
0.720000 0.000000 0
0.740000 0.000000 0
0.760000 0.000000 0
0.780000 0.000000 0
0.800000 0.000000 0
0.820000 0.000000 0
0.840000 0.000000 0
0.860000 0.000000 0
0.880000 0.000000 0
0.900000 0.000000 0
0.920000 0.000000 0
0.940000 0.000000 0
0.960000 0.000000 0
0.980000 0.000000 0
1.000000 0.000000 0
0.000000 0.020000 0
0.020000 0.020000 0
0.040000 0.020000 0
0.060000 0.020000 0
0.080000 0.020000 0
0.100000 0.020000 0
0.120000 0.020000 0
0.140000 0.020000 0
0.160000 0.020000 0
0.180000 0.020000 0
0.200000 0.020000 0
0.220000 0.020000 0
0.240000 0.020000 0
0.260000 0.020000 0
0.280000 0.020000 0
0.300000 0.020000 0
0.320000 0.020000 0
0.340000 0.020000 0
0.360000 0.020000 0
0.380000 0.020000 0
0.400000 0.020000 0
0.420000 0.020000 0
0.440000 0.020000 0
0.460000 0.020000 0
0.480000 0.020000 0
0.500000 0.020000 0
0.520000 0.020000 0
0.540000 0.020000 0
0.560000 0.020000 0
0.580000 0.020000 0
0.600000 0.020000 0
0.620000 0.020000 0
0.640000 0.020000 0
0.660000 0.020000 0
0.680000 0.020000 0
0.700000 0.020000 0
0.720000 0.020000 0
0.740000 0.020000 0
0.760000 0.020000 0
0.780000 0.020000 0
0.800000 0.020000 0
0.820000 0.020000 0
0.840000 0.020000 0
0.860000 0.020000 0
0.880000 0.020000 0
0.900000 0.020000 0
0.920000 0.020000 0
0.940000 0.020000 0
0.960000 0.020000 0
0.980000 0.020000 0
1.000000 0.020000 0
0.000000 0.040000 0
0.020000 0.040000 0
0.040000 0.040000 0
0.060000 0.040000 0
0.080000 0.040000 0
0.100000 0.040000 0
0.120000 0.040000 0
0.140000 0.040000 0
0.160000 0.040000 0
0.180000 0.040000 0
0.200000 0.040000 0
0.220000 0.040000 0
0.240000 0.040000 0
0.260000 0.040000 0
0.280000 0.040000 0
0.300000 0.040000 0
0.320000 0.040000 0
0.340000 0.040000 0
0.360000 0.040000 0
0.380000 0.040000 0
0.400000 0.040000 0
0.420000 0.040000 0
0.440000 0.040000 0
0.460000 0.040000 0
0.480000 0.040000 0
0.500000 0.040000 0
0.520000 0.040000 0
0.540000 0.040000 0
0.560000 0.040000 0
0.580000 0.040000 0
0.600000 0.040000 0
0.620000 0.040000 0
0.640000 0.040000 0
0.660000 0.040000 0
0.680000 0.040000 0
0.700000 0.040000 0
0.720000 0.040000 0
0.740000 0.040000 0
0.760000 0.040000 0
0.780000 0.040000 0
0.800000 0.040000 0
0.820000 0.040000 0
0.840000 0.040000 0
0.860000 0.040000 0
0.880000 0.040000 0
0.900000 0.040000 0
0.920000 0.040000 0
0.940000 0.040000 0
0.960000 0.040000 0
0.980000 0.040000 0
1.000000 0.040000 0
0.000000 0.060000 0
0.020000 0.060000 0
0.040000 0.060000 0
0.060000 0.060000 0
0.080000 0.060000 0
0.100000 0.060000 0
0.120000 0.060000 0
0.140000 0.060000 0
0.160000 0.060000 0
0.180000 0.060000 0
0.200000 0.060000 0
0.220000 0.060000 0
0.240000 0.060000 0
0.260000 0.060000 0
0.280000 0.060000 0
0.300000 0.060000 0
0.320000 0.060000 0
0.340000 0.060000 0
0.360000 0.060000 0
0.380000 0.060000 0
0.400000 0.060000 0
0.420000 0.060000 0
0.440000 0.060000 0
0.460000 0.060000 0
0.480000 0.060000 0
0.500000 0.060000 0
0.520000 0.060000 0
0.540000 0.060000 0
0.560000 0.060000 0
0.580000 0.060000 0
0.600000 0.060000 0
0.620000 0.060000 0
0.640000 0.060000 0
0.660000 0.060000 0
0.680000 0.060000 0
0.700000 0.060000 0
0.720000 0.060000 0
0.740000 0.060000 0
0.760000 0.060000 0
0.780000 0.060000 0
0.800000 0.060000 0
0.820000 0.060000 0
0.840000 0.060000 0
0.860000 0.060000 0
0.880000 0.060000 0
0.900000 0.060000 0
0.920000 0.060000 0
0.940000 0.060000 0
0.960000 0.060000 0
0.980000 0.060000 0
1.000000 0.060000 0
0.000000 0.080000 0
0.020000 0.080000 0
0.040000 0.080000 0
0.060000 0.080000 0
0.080000 0.080000 0
0.100000 0.080000 0
0.120000 0.080000 0
0.140000 0.080000 0
0.160000 0.080000 0
0.180000 0.080000 0
0.200000 0.080000 0
0.220000 0.080000 0
0.240000 0.080000 0
0.260000 0.080000 0
0.280000 0.080000 0
0.300000 0.080000 0
0.320000 0.080000 0
0.340000 0.080000 0
0.360000 0.080000 0
0.380000 0.080000 0
0.400000 0.080000 0
0.420000 0.080000 0
0.440000 0.080000 0
0.460000 0.080000 0
0.480000 0.080000 0
0.500000 0.080000 0
0.520000 0.080000 0
0.540000 0.080000 0
0.560000 0.080000 0
0.580000 0.080000 0
0.600000 0.080000 0
0.620000 0.080000 0
0.640000 0.080000 0
0.660000 0.080000 0
0.680000 0.080000 0
0.700000 0.080000 0
0.720000 0.080000 0
0.740000 0.080000 0
0.760000 0.080000 0
0.780000 0.080000 0
0.800000 0.080000 0
0.820000 0.080000 0
0.840000 0.080000 0
0.860000 0.080000 0
0.880000 0.080000 0
0.900000 0.080000 0
0.920000 0.080000 0
0.940000 0.080000 0
0.960000 0.080000 0
0.980000 0.080000 0
1.000000 0.080000 0
0.000000 0.100000 0
0.020000 0.100000 0
0.040000 0.100000 0
0.060000 0.100000 0
0.080000 0.100000 0
0.100000 0.100000 0
0.120000 0.100000 0
0.140000 0.100000 0
0.160000 0.100000 0
0.180000 0.100000 0
0.200000 0.100000 0
0.220000 0.100000 0
0.240000 0.100000 0
0.260000 0.100000 0
0.280000 0.100000 0
0.300000 0.100000 0
0.320000 0.100000 0
0.340000 0.100000 0
0.360000 0.100000 0
0.380000 0.100000 0
0.400000 0.100000 0
0.420000 0.100000 0
0.440000 0.100000 0
0.460000 0.100000 0
0.480000 0.100000 0
0.500000 0.100000 0
0.520000 0.100000 0
0.540000 0.100000 0
0.560000 0.100000 0
0.580000 0.100000 0
0.600000 0.100000 0
0.620000 0.100000 0
0.640000 0.100000 0
0.660000 0.100000 0
0.680000 0.100000 0
0.700000 0.100000 0
0.720000 0.100000 0
0.740000 0.100000 0
0.760000 0.100000 0
0.780000 0.100000 0
0.800000 0.100000 0
0.820000 0.100000 0
0.840000 0.100000 0
0.860000 0.100000 0
0.880000 0.100000 0
0.900000 0.100000 0
0.920000 0.100000 0
0.940000 0.100000 0
0.960000 0.100000 0
0.980000 0.100000 0
1.000000 0.100000 0
0.000000 0.120000 0
0.020000 0.120000 0
0.040000 0.120000 0
0.060000 0.120000 0
0.080000 0.120000 0
0.100000 0.120000 0
0.120000 0.120000 0
0.140000 0.120000 0
0.160000 0.120000 0
0.180000 0.120000 0
0.200000 0.120000 0
0.220000 0.120000 0
0.240000 0.120000 0
0.260000 0.120000 0
0.280000 0.120000 0
0.300000 0.120000 0
0.320000 0.120000 0
0.340000 0.120000 0
0.360000 0.120000 0
0.380000 0.120000 0
0.400000 0.120000 0
0.420000 0.120000 0
0.440000 0.120000 0
0.460000 0.120000 0
0.480000 0.120000 0
0.500000 0.120000 0
0.520000 0.120000 0
0.540000 0.120000 0
0.560000 0.120000 0
0.580000 0.120000 0
0.600000 0.120000 0
0.620000 0.120000 0
0.640000 0.120000 0
0.660000 0.120000 0
0.680000 0.120000 0
0.700000 0.120000 0
0.720000 0.120000 0
0.740000 0.120000 0
0.760000 0.120000 0
0.780000 0.120000 0
0.800000 0.120000 0
0.820000 0.120000 0
0.840000 0.120000 0
0.860000 0.120000 0
0.880000 0.120000 0
0.900000 0.120000 0
0.920000 0.120000 0
0.940000 0.120000 0
0.960000 0.120000 0
0.980000 0.120000 0
1.000000 0.120000 0
0.000000 0.140000 0
0.020000 0.140000 0
0.040000 0.140000 0
0.060000 0.140000 0
0.080000 0.140000 0
0.100000 0.140000 0
0.120000 0.140000 0
0.140000 0.140000 0
0.160000 0.140000 0
0.180000 0.140000 0
0.200000 0.140000 0
0.220000 0.140000 0
0.240000 0.140000 0
0.260000 0.140000 0
0.280000 0.140000 0
0.300000 0.140000 0
0.320000 0.140000 0
0.340000 0.140000 0
0.360000 0.140000 0
0.380000 0.140000 0
0.400000 0.140000 0
0.420000 0.140000 0
0.440000 0.140000 0
0.460000 0.140000 0
0.480000 0.140000 0
0.500000 0.140000 0
0.520000 0.140000 0
0.540000 0.140000 0
0.560000 0.140000 0
0.580000 0.140000 0
0.600000 0.140000 0
0.620000 0.140000 0
0.640000 0.140000 0
0.660000 0.140000 0
0.680000 0.140000 0
0.700000 0.140000 0
0.720000 0.140000 0
0.740000 0.140000 0
0.760000 0.140000 0
0.780000 0.140000 0
0.800000 0.140000 0
0.820000 0.140000 0
0.840000 0.140000 0
0.860000 0.140000 0
0.880000 0.140000 0
0.900000 0.140000 0
0.920000 0.140000 0
0.940000 0.140000 0
0.960000 0.140000 0
0.980000 0.140000 0
1.000000 0.140000 0
0.000000 0.160000 0
0.020000 0.160000 0
0.040000 0.160000 0
0.060000 0.160000 0
0.080000 0.160000 0
0.100000 0.160000 0
0.120000 0.160000 0
0.140000 0.160000 0
0.160000 0.160000 0
0.180000 0.160000 0
0.200000 0.160000 0
0.220000 0.160000 0
0.240000 0.160000 0
0.260000 0.160000 0
0.280000 0.160000 0
0.300000 0.160000 0
0.320000 0.160000 0
0.340000 0.160000 0
0.360000 0.160000 0
0.380000 0.160000 0
0.400000 0.160000 0
0.420000 0.160000 0
0.440000 0.160000 0
0.460000 0.160000 0
0.480000 0.160000 0
0.500000 0.160000 0
0.520000 0.160000 0
0.540000 0.160000 0
0.560000 0.160000 0
0.580000 0.160000 0
0.600000 0.160000 0
0.620000 0.160000 0
0.640000 0.160000 0
0.660000 0.160000 0
0.680000 0.160000 0
0.700000 0.160000 0
0.720000 0.160000 0
0.740000 0.160000 0
0.760000 0.160000 0
0.780000 0.160000 0
0.800000 0.160000 0
0.820000 0.160000 0
0.840000 0.160000 0
0.860000 0.160000 0
0.880000 0.160000 0
0.900000 0.160000 0
0.920000 0.160000 0
0.940000 0.160000 0
0.960000 0.160000 0
0.980000 0.160000 0
1.000000 0.160000 0
0.000000 0.180000 0
0.020000 0.180000 0
0.040000 0.180000 0
0.060000 0.180000 0
0.080000 0.180000 0
0.100000 0.180000 0
0.120000 0.180000 0
0.140000 0.180000 0
0.160000 0.180000 0
0.180000 0.180000 0
0.200000 0.180000 0
0.220000 0.180000 0
0.240000 0.180000 0
0.260000 0.180000 0
0.280000 0.180000 0
0.300000 0.180000 0
0.320000 0.180000 0
0.340000 0.180000 0
0.360000 0.180000 0
0.380000 0.180000 0
0.400000 0.180000 0
0.420000 0.180000 0
0.440000 0.180000 0
0.460000 0.180000 0
0.480000 0.180000 0
0.500000 0.180000 0
0.520000 0.180000 0
0.540000 0.180000 0
0.560000 0.180000 0
0.580000 0.180000 0
0.600000 0.180000 0
0.620000 0.180000 0
[...]
POINT_DATA 2601 

VECTORS velocity float
0.000000 0.000000 0
-0.000000 0.000000 0
-0.000000 0.000000 0
-0.000000 0.000000 0
-0.000000 0.000000 0
-0.000000 0.000000 0
-0.000000 0.000000 0
-0.000000 0.000000 0
-0.000000 0.000000 0
-0.000000 0.000000 0
-0.000000 0.000000 0
-0.000000 0.000000 0
-0.000000 0.000000 0
-0.000000 0.000000 0
-0.000000 0.000000 0
-0.000000 0.000000 0
-0.000000 0.000000 0
-0.000000 0.000000 0
-0.000000 0.000000 0
-0.000000 0.000000 0
-0.000000 0.000000 0
-0.000000 0.000000 0
-0.000000 0.000000 0
-0.000000 0.000000 0
-0.000000 0.000000 0
-0.000000 0.000000 0
-0.000000 0.000000 0
-0.000000 0.000000 0
-0.000000 0.000000 0
-0.000000 0.000000 0
-0.000000 0.000000 0
-0.000000 0.000000 0
-0.000000 0.000000 0
-0.000000 0.000000 0
-0.000000 0.000000 0
-0.000000 0.000000 0
-0.000000 0.000000 0
-0.000000 0.000000 0
-0.000000 0.000000 0
-0.000000 0.000000 0
-0.000000 0.000000 0
-0.000000 0.000000 0
-0.000000 0.000000 0
-0.000000 0.000000 0
-0.000000 0.000000 0
-0.000000 0.000000 0
-0.000000 0.000000 0
-0.000000 0.000000 0
-0.000000 0.000000 0
-0.000000 0.000000 0
0.000000 0.000000 0
0.000000 0.000000 0
0.000024 0.000016 0
0.000047 0.000031 0
0.000071 0.000046 0
0.000095 0.000061 0
0.000119 0.000075 0
0.000144 0.000088 0
0.000169 0.000100 0
0.000195 0.000112 0
0.000221 0.000122 0
0.000248 0.000131 0
0.000276 0.000140 0
0.000304 0.000147 0
0.000333 0.000152 0
0.000362 0.000157 0
0.000392 0.000160 0
0.000423 0.000163 0
0.000454 0.000164 0
0.000486 0.000164 0
0.000518 0.000163 0
0.000551 0.000160 0
0.000583 0.000157 0
0.000616 0.000153 0
0.000648 0.000148 0
0.000681 0.000142 0
0.000712 0.000135 0
0.000743 0.000128 0
0.000772 0.000120 0
0.000800 0.000111 0
0.000825 0.000102 0
0.000848 0.000093 0
0.000868 0.000083 0
0.000885 0.000073 0
0.000897 0.000064 0
0.000904 0.000054 0
0.000905 0.000044 0
0.000900 0.000035 0
0.000889 0.000027 0
0.000869 0.000019 0
0.000842 0.000012 0
0.000805 0.000007 0
0.000760 0.000002 0
0.000706 -0.000002 0
0.000642 -0.000005 0
0.000570 -0.000006 0
0.000489 -0.000007 0
0.000401 -0.000006 0
0.000307 -0.000005 0
0.000207 -0.000003 0
0.000105 -0.000001 0
0.000000 0.000000 0
0.000000 0.000000 0
0.000047 0.000031 0
0.000094 0.000062 0
0.000142 0.000092 0
0.000190 0.000122 0
0.000239 0.000150 0
0.000288 0.000176 0
0.000338 0.000201 0
0.000390 0.000224 0
0.000442 0.000245 0
0.000496 0.000264 0
0.000551 0.000280 0
0.000607 0.000294 0
0.000665 0.000306 0
0.000724 0.000315 0
0.000784 0.000322 0
0.000845 0.000327 0
0.000908 0.000329 0
0.000972 0.000329 0
0.001036 0.000326 0
0.001101 0.000322 0
0.001167 0.000315 0
0.001233 0.000307 0
0.001298 0.000297 0
0.001362 0.000285 0
0.001426 0.000271 0
0.001487 0.000257 0
0.001546 0.000240 0
0.001602 0.000223 0
0.001653 0.000205 0
0.001700 0.000186 0
0.001740 0.000166 0
0.001774 0.000147 0
0.001798 0.000127 0
0.001813 0.000107 0
0.001817 0.000089 0
0.001808 0.000070 0
0.001785 0.000053 0
0.001747 0.000038 0
0.001692 0.000024 0
0.001620 0.000012 0
0.001529 0.000002 0
0.001420 -0.000005 0
0.001293 -0.000011 0
0.001148 -0.000014 0
0.000985 -0.000015 0
0.000808 -0.000013 0
0.000618 -0.000011 0
0.000418 -0.000007 0
0.000211 -0.000002 0
0.000000 0.000000 0
0.000000 0.000000 0
0.000070 0.000047 0
0.000141 0.000094 0
0.000212 0.000140 0
0.000284 0.000184 0
0.000357 0.000227 0
0.000431 0.000267 0
0.000506 0.000304 0
0.000583 0.000339 0
0.000662 0.000371 0
0.000742 0.000399 0
0.000825 0.000424 0
0.000909 0.000445 0
0.000996 0.000462 0
0.001084 0.000476 0
0.001175 0.000487 0
0.001268 0.000493 0
0.001362 0.000496 0
0.001458 0.000496 0
0.001555 0.000492 0
0.001653 0.000486 0
0.001752 0.000476 0
0.001850 0.000463 0
0.001949 0.000448 0
0.002046 0.000430 0
0.002142 0.000409 0
0.002235 0.000387 0
0.002324 0.000362 0
0.002409 0.000336 0
0.002487 0.000308 0
0.002559 0.000280 0
0.002621 0.000250 0
0.002672 0.000220 0
0.002710 0.000190 0
0.002734 0.000160 0
0.002741 0.000132 0
0.002730 0.000104 0
0.002697 0.000078 0
0.002641 0.000055 0
0.002559 0.000034 0
0.002452 0.000015 0
0.002316 0.000001 0
0.002153 -0.000011 0
0.001961 -0.000019 0
0.001741 -0.000023 0
0.001496 -0.000024 0
0.001228 -0.000022 0
0.000939 -0.000018 0
0.000635 -0.000011 0
0.000320 -0.000004 0
0.000000 0.000000 0
0.000000 0.000000 0
0.000094 0.000064 0
0.000188 0.000127 0
0.000282 0.000189 0
0.000378 0.000249 0
0.000475 0.000306 0
0.000573 0.000360 0
0.000673 0.000411 0
0.000776 0.000457 0
0.000881 0.000500 0
0.000988 0.000538 0
0.001098 0.000571 0
0.001211 0.000599 0
0.001326 0.000623 0
0.001444 0.000641 0
0.001566 0.000655 0
0.001689 0.000664 0
0.001815 0.000668 0
0.001944 0.000667 0
0.002074 0.000662 0
0.002205 0.000653 0
0.002338 0.000640 0
0.002471 0.000622 0
0.002603 0.000601 0
0.002734 0.000577 0
0.002863 0.000549 0
0.002988 0.000519 0
0.003109 0.000486 0
0.003224 0.000450 0
0.003331 0.000413 0
0.003428 0.000374 0
0.003513 0.000334 0
0.003584 0.000294 0
0.003638 0.000253 0
0.003673 0.000213 0
0.003685 0.000174 0
0.003672 0.000136 0
0.003631 0.000101 0
0.003559 0.000069 0
0.003453 0.000040 0
0.003310 0.000016 0
0.003130 -0.000005 0
0.002912 -0.000020 0
0.002654 -0.000030 0
0.002359 -0.000036 0
0.002028 -0.000037 0
0.001665 -0.000033 0
0.001275 -0.000027 0
0.000863 -0.000017 0
0.000435 -0.000006 0
0.000000 0.000000 0
0.000000 0.000000 0
0.000117 0.000081 0
0.000233 0.000161 0
0.000351 0.000240 0
0.000470 0.000316 0
0.000591 0.000389 0
0.000714 0.000457 0
0.000839 0.000521 0
0.000966 0.000580 0
0.001097 0.000634 0
0.001231 0.000682 0
0.001369 0.000724 0
0.001510 0.000759 0
0.001655 0.000789 0
0.001803 0.000812 0
0.001955 0.000829 0
0.002110 0.000840 0
0.002269 0.000845 0
0.002430 0.000844 0
0.002594 0.000837 0
0.002759 0.000825 0
0.002926 0.000808 0
0.003094 0.000786 0
0.003261 0.000759 0
0.003427 0.000728 0
0.003590 0.000693 0
0.003750 0.000654 0
0.003903 0.000612 0
0.004050 0.000567 0
0.004187 0.000519 0
0.004311 0.000470 0
0.004422 0.000419 0
0.004515 0.000367 0
0.004587 0.000315 0
0.004635 0.000264 0
0.004655 0.000214 0
0.004643 0.000166 0
0.004596 0.000121 0
0.004510 0.000079 0
0.004380 0.000043 0
0.004204 0.000011 0
0.003980 -0.000015 0
0.003707 -0.000034 0
0.003382 -0.000047 0
0.003009 -0.000053 0
0.002590 -0.000053 0
0.002128 -0.000048 0
0.001630 -0.000038 0
0.001103 -0.000024 0
0.000557 -0.000008 0
0.000000 0.000000 0
0.000000 0.000000 0
0.000139 0.000099 0
0.000279 0.000198 0
0.000419 0.000294 0
0.000561 0.000387 0
0.000705 0.000475 0
0.000852 0.000559 0
0.001002 0.000637 0
0.001155 0.000709 0
0.001312 0.000775 0
0.001473 0.000833 0
0.001638 0.000883 0
0.001808 0.000926 0
0.001982 0.000962 0
0.002161 0.000990 0
0.002344 0.001010 0
0.002531 0.001023 0
0.002722 0.001028 0
0.002917 0.001026 0
0.003115 0.001018 0
0.003316 0.001003 0
0.003518 0.000982 0
0.003722 0.000954 0
0.003925 0.000921 0
0.004127 0.000883 0
0.004326 0.000840 0
0.004521 0.000793 0
0.004709 0.000741 0
0.004889 0.000686 0
0.005058 0.000627 0
0.005213 0.000567 0
0.005352 0.000504 0
0.005469 0.000440 0
0.005562 0.000376 0
0.005627 0.000313 0
0.005657 0.000251 0
0.005650 0.000192 0
0.005600 0.000136 0
0.005502 0.000085 0
0.005351 0.000039 0
0.005144 0.000000 0
0.004876 -0.000031 0
0.004547 -0.000055 0
0.004155 -0.000070 0
0.003701 -0.000077 0
0.003188 -0.000076 0
0.002622 -0.000067 0
0.002010 -0.000053 0
0.001362 -0.000034 0
0.000687 -0.000012 0
0.000000 0.000000 0
0.000000 0.000000 0
0.000161 0.000119 0
0.000323 0.000236 0
0.000486 0.000351 0
0.000651 0.000462 0
0.000818 0.000568 0
0.000989 0.000668 0
0.001163 0.000761 0
0.001341 0.000846 0
0.001524 0.000923 0
0.001712 0.000992 0
0.001905 0.001052 0
0.002104 0.001102 0
0.002307 0.001144 0
0.002517 0.001176 0
0.002732 0.001200 0
0.002952 0.001214 0
0.003176 0.001220 0
0.003406 0.001217 0
0.003639 0.001207 0
0.003876 0.001188 0
0.004115 0.001162 0
0.004355 0.001130 0
0.004596 0.001090 0
0.004835 0.001044 0
0.005072 0.000993 0
0.005304 0.000936 0
0.005529 0.000874 0
0.005745 0.000808 0
0.005949 0.000738 0
0.006137 0.000665 0
0.006306 0.000590 0
0.006452 0.000514 0
0.006569 0.000437 0
0.006654 0.000360 0
0.006699 0.000285 0
0.006700 0.000214 0
0.006650 0.000146 0
0.006544 0.000084 0
0.006375 0.000029 0
0.006138 -0.000018 0
0.005828 -0.000056 0
0.005443 -0.000084 0
0.004981 -0.000101 0
0.004444 -0.000108 0
0.003833 -0.000105 0
0.003156 -0.000092 0
0.002422 -0.000072 0
0.001642 -0.000046 0
0.000829 -0.000016 0
0.000000 0.000000 0
0.000000 0.000000 0
0.000183 0.000140 0
0.000366 0.000278 0
0.000551 0.000412 0
0.000738 0.000542 0
0.000929 0.000666 0
0.001123 0.000783 0
0.001321 0.000892 0
0.001525 0.000992 0
0.001733 0.001082 0
0.001948 0.001161 0
0.002169 0.001231 0
0.002397 0.001289 0
0.002631 0.001337 0
0.002871 0.001374 0
0.003118 0.001400 0
0.003372 0.001416 0
0.003631 0.001422 0
0.003896 0.001418 0
0.004165 0.001405 0
0.004439 0.001382 0
0.004716 0.001352 0
0.004995 0.001313 0
0.005275 0.001266 0
0.005554 0.001212 0
0.005830 0.001151 0
0.006102 0.001084 0
0.006366 0.001012 0
0.006621 0.000934 0
0.006863 0.000852 0
0.007087 0.000766 0
0.007291 0.000677 0
0.007468 0.000587 0
0.007614 0.000496 0
0.007723 0.000405 0
0.007787 0.000316 0
0.007801 0.000231 0
0.007756 0.000150 0
0.007645 0.000076 0
0.007461 0.000010 0
0.007197 -0.000046 0
0.006847 -0.000090 0
0.006407 -0.000123 0
0.005873 -0.000143 0
0.005248 -0.000149 0
0.004534 -0.000143 0
0.003738 -0.000125 0
0.002872 -0.000097 0
0.001948 -0.000062 0
0.000984 -0.000021 0
0.000000 0.000000 0
0.000000 0.000000 0
0.000204 0.000162 0
0.000408 0.000322 0
0.000615 0.000479 0
0.000824 0.000630 0
0.001036 0.000773 0
0.001254 0.000908 0
0.001476 0.001034 0
0.001704 0.001148 0
0.001939 0.001252 0
0.002181 0.001343 0
0.002430 0.001422 0
0.002687 0.001488 0
0.002952 0.001542 0
0.003224 0.001583 0
0.003504 0.001613 0
0.003792 0.001630 0
0.004087 0.001635 0
0.004388 0.001630 0
0.004695 0.001613 0
0.005008 0.001587 0
0.005324 0.001551 0
0.005643 0.001505 0
0.005964 0.001450 0
0.006284 0.001388 0
0.006603 0.001317 0
0.006917 0.001239 0
0.007224 0.001155 0
0.007520 0.001064 0
0.007803 0.000969 0
0.008068 0.000869 0
0.008309 0.000766 0
0.008523 0.000660 0
0.008702 0.000553 0
0.008840 0.000447 0
0.008929 0.000342 0
0.008960 0.000242 0
0.008926 0.000146 0
0.008816 0.000059 0
0.008621 -0.000019 0
0.008334 -0.000085 0
0.007945 -0.000138 0
0.007449 -0.000176 0
0.006843 -0.000198 0
0.006126 -0.000203 0
0.005302 -0.000193 0
0.004378 -0.000168 0
0.003367 -0.000130 0
0.002286 -0.000082 0
0.001156 -0.000028 0
0.000000 0.000000 0
0.000000 0.000000 0
0.000224 0.000187 0
0.000449 0.000371 0
0.000676 0.000551 0
0.000906 0.000725 0
0.001141 0.000890 0
0.001381 0.001044 0
0.001627 0.001188 0
0.001880 0.001318 0
0.002141 0.001436 0
0.002410 0.001539 0
0.002688 0.001628 0
0.002974 0.001702 0
0.003270 0.001762 0
0.003576 0.001808 0
0.003890 0.001840 0
0.004213 0.001858 0
0.004544 0.001863 0
0.004883 0.001855 0
0.005230 0.001835 0
0.005582 0.001803 0
0.005940 0.001761 0
0.006301 0.001708 0
0.006665 0.001645 0
0.007030 0.001572 0
0.007393 0.001491 0
0.007752 0.001401 0
0.008104 0.001304 0
0.008445 0.001200 0
0.008773 0.001090 0
0.009082 0.000975 0
0.009367 0.000855 0
0.009622 0.000733 0
0.009839 0.000609 0
0.010012 0.000485 0
0.010131 0.000363 0
0.010187 0.000245 0
0.010169 0.000134 0
0.010065 0.000031 0
0.009866 -0.000061 0
0.009559 -0.000139 0
0.009135 -0.000201 0
0.008585 -0.000244 0
0.007905 -0.000269 0
0.007092 -0.000273 0
0.006150 -0.000257 0
0.005087 -0.000222 0
0.003918 -0.000171 0
0.002663 -0.000108 0
0.001347 -0.000037 0
0.000000 0.000000 0
0.000000 0.000000 0
0.000243 0.000214 0
0.000488 0.000425 0
0.000735 0.000631 0
0.000986 0.000829 0
0.001242 0.001017 0
0.001504 0.001193 0
0.001773 0.001356 0
0.002051 0.001504 0
0.002338 0.001636 0
0.002634 0.001752 0
0.002941 0.001851 0
0.003258 0.001934 0
0.003586 0.002000 0
0.003925 0.002050 0
0.004274 0.002084 0
0.004634 0.002102 0
0.005003 0.002106 0
0.005382 0.002095 0
0.005769 0.002071 0
0.006164 0.002033 0
0.006565 0.001984 0
0.006971 0.001922 0
0.007380 0.001850 0
0.007792 0.001767 0
0.008202 0.001674 0
0.008609 0.001572 0
0.009010 0.001461 0
0.009401 0.001342 0
0.009777 0.001216 0
0.010135 0.001084 0
0.010468 0.000946 0
0.010770 0.000806 0
0.011032 0.000663 0
0.011246 0.000519 0
0.011402 0.000378 0
0.011489 0.000240 0
0.011494 0.000110 0
0.011405 -0.000011 0
0.011206 -0.000118 0
0.010886 -0.000210 0
0.010430 -0.000282 0
0.009829 -0.000333 0
0.009073 -0.000360 0
0.008160 -0.000361 0
0.007092 -0.000338 0
0.005878 -0.000291 0
0.004535 -0.000224 0
0.003086 -0.000141 0
0.001563 -0.000048 0
0.000000 0.000000 0
0.000000 0.000000 0
0.000261 0.000244 0
0.000524 0.000485 0
0.000790 0.000720 0
0.001061 0.000945 0
0.001338 0.001158 0
0.001622 0.001358 0
0.001914 0.001541 0
0.002217 0.001707 0
0.002530 0.001856 0
0.002854 0.001985 0
0.003190 0.002095 0
0.003538 0.002186 0
0.003899 0.002258 0
0.004272 0.002311 0
0.004658 0.002347 0
0.005056 0.002365 0
0.005465 0.002367 0
0.005885 0.002352 0
0.006315 0.002323 0
0.006754 0.002279 0
0.007201 0.002221 0
0.007654 0.002151 0
0.008112 0.002068 0
0.008573 0.001973 0
0.009034 0.001867 0
0.009492 0.001751 0
0.009946 0.001625 0
0.010390 0.001490 0
0.010820 0.001347 0
0.011232 0.001196 0
0.011618 0.001040 0
0.011972 0.000878 0
0.012286 0.000714 0
0.012549 0.000549 0
0.012750 0.000385 0
0.012876 0.000226 0
0.012913 0.000073 0
0.012845 -0.000068 0
0.012657 -0.000194 0
0.012329 -0.000302 0
0.011848 -0.000387 0
0.011197 -0.000445 0
0.010366 -0.000475 0
0.009348 -0.000474 0
0.008145 -0.000442 0
0.006766 -0.000380 0
0.005229 -0.000292 0
0.003564 -0.000184 0
0.001806 -0.000063 0
0.000000 0.000000 0
0.000000 0.000000 0
0.000279 0.000278 0
0.000559 0.000552 0
0.000843 0.000819 0
0.001132 0.001074 0
0.001429 0.001315 0
0.001734 0.001540 0
0.002049 0.001747 0
0.002376 0.001933 0
0.002715 0.002098 0
0.003067 0.002241 0
0.003433 0.002362 0
0.003814 0.002461 0
0.004208 0.002539 0
0.004618 0.002596 0
0.005041 0.002632 0
0.005479 0.002650 0
0.005930 0.002648 0
0.006393 0.002629 0
0.006868 0.002594 0
0.007354 0.002542 0
0.007850 0.002475 0
0.008353 0.002395 0
0.008862 0.002300 0
0.009375 0.002193 0
0.009891 0.002073 0
0.010405 0.001941 0
0.010915 0.001799 0
0.011417 0.001646 0
0.011906 0.001484 0
0.012376 0.001313 0
0.012822 0.001135 0
0.013236 0.000951 0
0.013608 0.000763 0
0.013927 0.000574 0
0.014182 0.000385 0
0.014356 0.000200 0
0.014435 0.000022 0
0.014400 -0.000143 0
0.014230 -0.000291 0
0.013905 -0.000418 0
0.013404 -0.000518 0
0.012709 -0.000587 0
0.011803 -0.000620 0
0.010677 -0.000616 0
0.009329 -0.000572 0
0.007769 -0.000492 0
0.006018 -0.000378 0
0.004108 -0.000238 0
0.002084 -0.000081 0
0.000000 0.000000 0
0.000000 0.000000 0
0.000294 0.000316 0
0.000590 0.000628 0
0.000891 0.000930 0
0.001198 0.001219 0
0.001513 0.001491 0
0.001839 0.001744 0
0.002176 0.001975 0
0.002527 0.002183 0
0.002893 0.002366 0
0.003274 0.002524 0
0.003670 0.002656 0
0.004084 0.002764 0
0.004514 0.002847 0
0.004961 0.002906 0
0.005424 0.002943 0
0.005904 0.002958 0
0.006399 0.002953 0
0.006908 0.002928 0
0.007431 0.002885 0
0.007966 0.002825 0
0.008513 0.002748 0
0.009069 0.002656 0
0.009634 0.002548 0
0.010203 0.002427 0
0.010777 0.002292 0
0.011350 0.002144 0
0.011921 0.001983 0
0.012486 0.001811 0
0.013039 0.001628 0
0.013574 0.001436 0
0.014086 0.001234 0
0.014566 0.001025 0
0.015005 0.000810 0
0.015389 0.000593 0
0.015707 0.000375 0
0.015941 0.000161 0
0.016072 -0.000045 0
0.016080 -0.000239 0
0.015941 -0.000414 0
0.015629 -0.000564 0
0.015118 -0.000683 0
0.014385 -0.000764 0
0.013407 -0.000803 0
0.012169 -0.000794 0
0.010668 -0.000737 0
0.008909 -0.000633 0
0.006917 -0.000487 0
0.004730 -0.000307 0
0.002402 -0.000105 0
0.000000 0.000000 0
0.000000 0.000000 0
0.000308 0.000359 0
0.000618 0.000713 0
0.000934 0.001056 0
0.001257 0.001383 0
0.001590 0.001690 0
0.001935 0.001974 0
0.002295 0.002232 0
0.002670 0.002463 0
0.003062 0.002665 0
0.003472 0.002838 0
0.003900 0.002981 0
0.004348 0.003097 0
0.004815 0.003185 0
0.005302 0.003246 0
0.005807 0.003282 0
0.006331 0.003294 0
0.006872 0.003284 0
0.007430 0.003252 0
0.008004 0.003200 0
0.008593 0.003129 0
0.009194 0.003041 0
0.009807 0.002936 0
0.010430 0.002814 0
0.011060 0.002677 0
0.011696 0.002525 0
0.012333 0.002359 0
0.012970 0.002179 0
0.013602 0.001986 0
0.014225 0.001781 0
0.014832 0.001564 0
0.015416 0.001336 0
0.015970 0.001099 0
0.016483 0.000855 0
0.016943 0.000606 0
0.017334 0.000356 0
0.017638 0.000108 0
0.017836 -0.000132 0
0.017900 -0.000359 0
0.017805 -0.000566 0
0.017520 -0.000744 0
0.017012 -0.000887 0
0.016249 -0.000984 0
0.015203 -0.001030 0
0.013853 -0.001018 0
0.012187 -0.000945 0
0.010211 -0.000812 0
0.007949 -0.000625 0
0.005447 -0.000395 0
0.002770 -0.000135 0
0.000000 0.000000 0
0.000000 0.000000 0
0.000319 0.000409 0
0.000642 0.000811 0
0.000971 0.001199 0
0.001308 0.001569 0
0.001658 0.001915 0
0.002022 0.002233 0
0.002403 0.002521 0
0.002802 0.002777 0
0.003220 0.002999 0
0.003660 0.003188 0
0.004122 0.003343 0
0.004606 0.003466 0
0.005112 0.003558 0
0.005640 0.003620 0
0.006190 0.003653 0
0.006761 0.003661 0
0.007352 0.003644 0
0.007962 0.003603 0
0.008590 0.003541 0
0.009235 0.003458 0
0.009895 0.003357 0
0.010569 0.003237 0
0.011255 0.003099 0
0.011950 0.002945 0
0.012652 0.002775 0
0.013358 0.002590 0
0.014066 0.002389 0
0.014772 0.002173 0
0.015469 0.001943 0
0.016154 0.001699 0
0.016819 0.001443 0
0.017455 0.001175 0
0.018052 0.000898 0
0.018596 0.000613 0
0.019073 0.000326 0
0.019461 0.000039 0
0.019737 -0.000241 0
0.019875 -0.000508 0
0.019840 -0.000752 0
0.019597 -0.000966 0
0.019106 -0.001137 0
0.018327 -0.001256 0
0.017221 -0.001312 0
0.015758 -0.001297 0
0.013918 -0.001206 0
0.011704 -0.001038 0
0.009140 -0.000801 0
0.006278 -0.000506 0
0.003197 -0.000173 0
0.000000 0.000000 0
0.000000 0.000000 0
0.000328 0.000466 0
0.000660 0.000923 0
0.001000 0.001364 0
0.001350 0.001782 0
0.001715 0.002172 0
0.002096 0.002529 0
0.002498 0.002849 0
0.002921 0.003132 0
0.003367 0.003376 0
0.003838 0.003580 0
0.004334 0.003747 0
0.004855 0.003876 0
0.005402 0.003970 0
0.005975 0.004031 0
0.006573 0.004061 0
0.007194 0.004062 0
0.007838 0.004036 0
0.008505 0.003985 0
0.009191 0.003911 0
0.009897 0.003814 0
0.010620 0.003697 0
0.011359 0.003561 0
0.012112 0.003407 0
0.012877 0.003234 0
0.013651 0.003044 0
0.014432 0.002837 0
0.015216 0.002613 0
0.016000 0.002372 0
0.016780 0.002115 0
0.017549 0.001842 0
0.018302 0.001554 0
0.019028 0.001253 0
0.019719 0.000938 0
0.020359 0.000615 0
0.020933 0.000284 0
0.021418 -0.000047 0
0.021791 -0.000374 0
0.022018 -0.000687 0
0.022062 -0.000978 0
0.021881 -0.001235 0
0.021427 -0.001444 0
0.020647 -0.001591 0
0.019493 -0.001662 0
0.017920 -0.001646 0
0.015900 -0.001533 0
0.013425 -0.001324 0
0.010520 -0.001024 0
0.007245 -0.000648 0
0.003697 -0.000222 0
0.000000 0.000000 0
0.000000 0.000000 0
0.000334 0.000531 0
0.000673 0.001052 0
0.001020 0.001554 0
0.001381 0.002028 0
0.001758 0.002467 0
0.002156 0.002867 0
0.002577 0.003223 0
0.003024 0.003535 0
0.003498 0.003801 0
0.004001 0.004022 0
0.004533 0.004199 0
0.005095 0.004333 0
0.005687 0.004429 0
0.006307 0.004487 0
0.006956 0.004510 0
0.007632 0.004502 0
0.008334 0.004465 0
0.009061 0.004401 0
0.009810 0.004312 0
0.010582 0.004200 0
0.011373 0.004066 0
0.012182 0.003911 0
0.013008 0.003737 0
0.013848 0.003544 0
0.014699 0.003332 0
0.015559 0.003102 0
0.016426 0.002853 0
0.017296 0.002586 0
0.018164 0.002300 0
0.019025 0.001995 0
0.019873 0.001673 0
0.020699 0.001334 0
0.021493 0.000978 0
0.022241 0.000610 0
0.022925 0.000231 0
0.023523 -0.000152 0
0.024008 -0.000533 0
0.024345 -0.000903 0
0.024490 -0.001250 0
0.024395 -0.001560 0
0.024000 -0.001816 0
0.023242 -0.002000 0
0.022056 -0.002094 0
0.020382 -0.002079 0
0.018176 -0.001945 0
0.015418 -0.001685 0
0.012130 -0.001307 0
0.008380 -0.000830 0
0.004284 -0.000285 0
0.000000 0.000000 0
0.000000 0.000000 0
0.000336 0.000608 0
0.000677 0.001204 0
0.001029 0.001775 0
0.001397 0.002313 0
0.001785 0.002808 0
0.002198 0.003256 0
0.002638 0.003652 0
0.003109 0.003995 0
0.003612 0.004284 0
0.004148 0.004521 0
0.004719 0.004707 0
0.005324 0.004845 0
0.005963 0.004939 0
0.006635 0.004991 0
0.007340 0.005006 0