# vtk DataFile Version 2.0
generated by CFD-lab course output (written by Tobias Neckel) 
ASCII

DATASET STRUCTURED_GRID
DIMENSIONS  51 51 1 
POINTS 2601 float

0.000000 0.000000 0
0.020000 0.000000 0
0.040000 0.000000 0
0.060000 0.000000 0
0.080000 0.000000 0
0.100000 0.000000 0
0.120000 0.000000 0
0.140000 0.000000 0
0.160000 0.000000 0
0.180000 0.000000 0
0.200000 0.000000 0
0.220000 0.000000 0
0.240000 0.000000 0
0.260000 0.000000 0
0.280000 0.000000 0
0.300000 0.000000 0
0.320000 0.000000 0
0.340000 0.000000 0
0.360000 0.000000 0
0.380000 0.000000 0
0.400000 0.000000 0
0.420000 0.000000 0
0.440000 0.000000 0
0.460000 0.000000 0
0.480000 0.000000 0
0.500000 0.000000 0
0.520000 0.000000 0
0.540000 0.000000 0
0.560000 0.000000 0
0.580000 0.000000 0
0.600000 0.000000 0
0.620000 0.000000 0
0.640000 0.000000 0
0.660000 0.000000 0
0.680000 0.000000 0
0.700000 0.000000 0
0.720000 0.000000 0
0.740000 0.000000 0
0.760000 0.000000 0
0.780000 0.000000 0
0.800000 0.000000 0
0.820000 0.000000 0
0.840000 0.000000 0
0.860000 0.000000 0
0.880000 0.000000 0
0.900000 0.000000 0
0.920000 0.000000 0
0.940000 0.000000 0
0.960000 0.000000 0
0.980000 0.000000 0
1.000000 0.000000 0
0.000000 0.020000 0
0.020000 0.020000 0
0.040000 0.020000 0
0.060000 0.020000 0
0.080000 0.020000 0
0.100000 0.020000 0
0.120000 0.020000 0
0.140000 0.020000 0
0.160000 0.020000 0
0.180000 0.020000 0
0.200000 0.020000 0
0.220000 0.020000 0
0.240000 0.020000 0
0.260000 0.020000 0
0.280000 0.020000 0
0.300000 0.020000 0
0.320000 0.020000 0
0.340000 0.020000 0
0.360000 0.020000 0
0.380000 0.020000 0
0.400000 0.020000 0
0.420000 0.020000 0
0.440000 0.020000 0
0.460000 0.020000 0
0.480000 0.020000 0
0.500000 0.020000 0
0.520000 0.020000 0
0.540000 0.020000 0
0.560000 0.020000 0
0.580000 0.020000 0
0.600000 0.020000 0
0.620000 0.020000 0
0.640000 0.020000 0
0.660000 0.020000 0
0.680000 0.020000 0
0.700000 0.020000 0
0.720000 0.020000 0
0.740000 0.020000 0
0.760000 0.020000 0
0.780000 0.020000 0
0.800000 0.020000 0
0.820000 0.020000 0
0.840000 0.020000 0
0.860000 0.020000 0
0.880000 0.020000 0
0.900000 0.020000 0
0.920000 0.020000 0
0.940000 0.020000 0
0.960000 0.020000 0
0.980000 0.020000 0
1.000000 0.020000 0
0.000000 0.040000 0
0.020000 0.040000 0
0.040000 0.040000 0
0.060000 0.040000 0
0.080000 0.040000 0
0.100000 0.040000 0
0.120000 0.040000 0
0.140000 0.040000 0
0.160000 0.040000 0
0.180000 0.040000 0
0.200000 0.040000 0
0.220000 0.040000 0
0.240000 0.040000 0
0.260000 0.040000 0
0.280000 0.040000 0
0.300000 0.040000 0
0.320000 0.040000 0
0.340000 0.040000 0
0.360000 0.040000 0
0.380000 0.040000 0
0.400000 0.040000 0
0.420000 0.040000 0
0.440000 0.040000 0
0.460000 0.040000 0
0.480000 0.040000 0
0.500000 0.040000 0
0.520000 0.040000 0
0.540000 0.040000 0
0.560000 0.040000 0
0.580000 0.040000 0
0.600000 0.040000 0
0.620000 0.040000 0
0.640000 0.040000 0
0.660000 0.040000 0
0.680000 0.040000 0
0.700000 0.040000 0
0.720000 0.040000 0
0.740000 0.040000 0
0.760000 0.040000 0
0.780000 0.040000 0
0.800000 0.040000 0
0.820000 0.040000 0
0.840000 0.040000 0
0.860000 0.040000 0
0.880000 0.040000 0
0.900000 0.040000 0
0.920000 0.040000 0
0.940000 0.040000 0
0.960000 0.040000 0
0.980000 0.040000 0
1.000000 0.040000 0
0.000000 0.060000 0
0.020000 0.060000 0
0.040000 0.060000 0
0.060000 0.060000 0
0.080000 0.060000 0
0.100000 0.060000 0
0.120000 0.060000 0
0.140000 0.060000 0
0.160000 0.060000 0
0.180000 0.060000 0
0.200000 0.060000 0
0.220000 0.060000 0
0.240000 0.060000 0
0.260000 0.060000 0
0.280000 0.060000 0
0.300000 0.060000 0
0.320000 0.060000 0
0.340000 0.060000 0
0.360000 0.060000 0
0.380000 0.060000 0
0.400000 0.060000 0
0.420000 0.060000 0
0.440000 0.060000 0
0.460000 0.060000 0
0.480000 0.060000 0
0.500000 0.060000 0
0.520000 0.060000 0
0.540000 0.060000 0
0.560000 0.060000 0
0.580000 0.060000 0
0.600000 0.060000 0
0.620000 0.060000 0
0.640000 0.060000 0
0.660000 0.060000 0
0.680000 0.060000 0
0.700000 0.060000 0
0.720000 0.060000 0
0.740000 0.060000 0
0.760000 0.060000 0
0.780000 0.060000 0
0.800000 0.060000 0
0.820000 0.060000 0
0.840000 0.060000 0
0.860000 0.060000 0
0.880000 0.060000 0
0.900000 0.060000 0
0.920000 0.060000 0
0.940000 0.060000 0
0.960000 0.060000 0
0.980000 0.060000 0
1.000000 0.060000 0
0.000000 0.080000 0
0.020000 0.080000 0
0.040000 0.080000 0
0.060000 0.080000 0
0.080000 0.080000 0
0.100000 0.080000 0
0.120000 0.080000 0
0.140000 0.080000 0
0.160000 0.080000 0
0.180000 0.080000 0
0.200000 0.080000 0
0.220000 0.080000 0
0.240000 0.080000 0
0.260000 0.080000 0
0.280000 0.080000 0
0.300000 0.080000 0
0.320000 0.080000 0
0.340000 0.080000 0
0.360000 0.080000 0
0.380000 0.080000 0
0.400000 0.080000 0
0.420000 0.080000 0
0.440000 0.080000 0
0.460000 0.080000 0
0.480000 0.080000 0
0.500000 0.080000 0
0.520000 0.080000 0
0.540000 0.080000 0
0.560000 0.080000 0
0.580000 0.080000 0
0.600000 0.080000 0
0.620000 0.080000 0
0.640000 0.080000 0
0.660000 0.080000 0
0.680000 0.080000 0
0.700000 0.080000 0
0.720000 0.080000 0
0.740000 0.080000 0
0.760000 0.080000 0
0.780000 0.080000 0
0.800000 0.080000 0
0.820000 0.080000 0
0.840000 0.080000 0
0.860000 0.080000 0
0.880000 0.080000 0
0.900000 0.080000 0
0.920000 0.080000 0
0.940000 0.080000 0
0.960000 0.080000 0
0.980000 0.080000 0
1.000000 0.080000 0
0.000000 0.100000 0
0.020000 0.100000 0
0.040000 0.100000 0
0.060000 0.100000 0
0.080000 0.100000 0
0.100000 0.100000 0
0.120000 0.100000 0
0.140000 0.100000 0
0.160000 0.100000 0
0.180000 0.100000 0
0.200000 0.100000 0
0.220000 0.100000 0
0.240000 0.100000 0
0.260000 0.100000 0
0.280000 0.100000 0
0.300000 0.100000 0
0.320000 0.100000 0
0.340000 0.100000 0
0.360000 0.100000 0
0.380000 0.100000 0
0.400000 0.100000 0
0.420000 0.100000 0
0.440000 0.100000 0
0.460000 0.100000 0
0.480000 0.100000 0
0.500000 0.100000 0
0.520000 0.100000 0
0.540000 0.100000 0
0.560000 0.100000 0
0.580000 0.100000 0
0.600000 0.100000 0
0.620000 0.100000 0
0.640000 0.100000 0
0.660000 0.100000 0
0.680000 0.100000 0
0.700000 0.100000 0
0.720000 0.100000 0
0.740000 0.100000 0
0.760000 0.100000 0
0.780000 0.100000 0
0.800000 0.100000 0
0.820000 0.100000 0
0.840000 0.100000 0
0.860000 0.100000 0
0.880000 0.100000 0
0.900000 0.100000 0
0.920000 0.100000 0
0.940000 0.100000 0
0.960000 0.100000 0
0.980000 0.100000 0
1.000000 0.100000 0
0.000000 0.120000 0
0.020000 0.120000 0
0.040000 0.120000 0
0.060000 0.120000 0
0.080000 0.120000 0
0.100000 0.120000 0
0.120000 0.120000 0
0.140000 0.120000 0
0.160000 0.120000 0
0.180000 0.120000 0
0.200000 0.120000 0
0.220000 0.120000 0
0.240000 0.120000 0
0.260000 0.120000 0
0.280000 0.120000 0
0.300000 0.120000 0
0.320000 0.120000 0
0.340000 0.120000 0
0.360000 0.120000 0
0.380000 0.120000 0
0.400000 0.120000 0
0.420000 0.120000 0
0.440000 0.120000 0
0.460000 0.120000 0
0.480000 0.120000 0
0.500000 0.120000 0
0.520000 0.120000 0
0.540000 0.120000 0
0.560000 0.120000 0
0.580000 0.120000 0
0.600000 0.120000 0
0.620000 0.120000 0
0.640000 0.120000 0
0.660000 0.120000 0
0.680000 0.120000 0
0.700000 0.120000 0
0.720000 0.120000 0
0.740000 0.120000 0
0.760000 0.120000 0
0.780000 0.120000 0
0.800000 0.120000 0
0.820000 0.120000 0
0.840000 0.120000 0
0.860000 0.120000 0
0.880000 0.120000 0
0.900000 0.120000 0
0.920000 0.120000 0
0.940000 0.120000 0
0.960000 0.120000 0
0.980000 0.120000 0
1.000000 0.120000 0
0.000000 0.140000 0
0.020000 0.140000 0
0.040000 0.140000 0
0.060000 0.140000 0
0.080000 0.140000 0
0.100000 0.140000 0
0.120000 0.140000 0
0.140000 0.140000 0
0.160000 0.140000 0
0.180000 0.140000 0
0.200000 0.140000 0
0.220000 0.140000 0
0.240000 0.140000 0
0.260000 0.140000 0
0.280000 0.140000 0
0.300000 0.140000 0
0.320000 0.140000 0
0.340000 0.140000 0
0.360000 0.140000 0
0.380000 0.140000 0
0.400000 0.140000 0
0.420000 0.140000 0
0.440000 0.140000 0
0.460000 0.140000 0
0.480000 0.140000 0
0.500000 0.140000 0
0.520000 0.140000 0
0.540000 0.140000 0
0.560000 0.140000 0
0.580000 0.140000 0
0.600000 0.140000 0
0.620000 0.140000 0
0.640000 0.140000 0
0.660000 0.140000 0
0.680000 0.140000 0
0.700000 0.140000 0
0.720000 0.140000 0
0.740000 0.140000 0
0.760000 0.140000 0
0.780000 0.140000 0
0.800000 0.140000 0
0.820000 0.140000 0
0.840000 0.140000 0
0.860000 0.140000 0
0.880000 0.140000 0
0.900000 0.140000 0
0.920000 0.140000 0
0.940000 0.140000 0
0.960000 0.140000 0
0.980000 0.140000 0
1.000000 0.140000 0
0.000000 0.160000 0
0.020000 0.160000 0
0.040000 0.160000 0
0.060000 0.160000 0
0.080000 0.160000 0
0.100000 0.160000 0
0.120000 0.160000 0
0.140000 0.160000 0
0.160000 0.160000 0
0.180000 0.160000 0
0.200000 0.160000 0
0.220000 0.160000 0
0.240000 0.160000 0
0.260000 0.160000 0
0.280000 0.160000 0
0.300000 0.160000 0
0.320000 0.160000 0
0.340000 0.160000 0
0.360000 0.160000 0
0.380000 0.160000 0
0.400000 0.160000 0
0.420000 0.160000 0
0.440000 0.160000 0
0.460000 0.160000 0
0.480000 0.160000 0
0.500000 0.160000 0
0.520000 0.160000 0
0.540000 0.160000 0
0.560000 0.160000 0
0.580000 0.160000 0
0.600000 0.160000 0
0.620000 0.160000 0
0.640000 0.160000 0
0.660000 0.160000 0
0.680000 0.160000 0
0.700000 0.160000 0
0.720000 0.160000 0
0.740000 0.160000 0
0.760000 0.160000 0
0.780000 0.160000 0
0.800000 0.160000 0
0.820000 0.160000 0
0.840000 0.160000 0
0.860000 0.160000 0
0.880000 0.160000 0
0.900000 0.160000 0
0.920000 0.160000 0
0.940000 0.160000 0
0.960000 0.160000 0
0.980000 0.160000 0
1.000000 0.160000 0
0.000000 0.180000 0
0.020000 0.180000 0
0.040000 0.180000 0
0.060000 0.180000 0
0.080000 0.180000 0
0.100000 0.180000 0
0.120000 0.180000 0
0.140000 0.180000 0
0.160000 0.180000 0
0.180000 0.180000 0
0.200000 0.180000 0
0.220000 0.180000 0
0.240000 0.180000 0
0.260000 0.180000 0
0.280000 0.180000 0
0.300000 0.180000 0
0.320000 0.180000 0
0.340000 0.180000 0
0.360000 0.180000 0
0.380000 0.180000 0
0.400000 0.180000 0
0.420000 0.180000 0
0.440000 0.180000 0
0.460000 0.180000 0
0.480000 0.180000 0
0.500000 0.180000 0
0.520000 0.180000 0
0.540000 0.180000 0
0.560000 0.180000 0
0.580000 0.180000 0
0.600000 0.180000 0
0.620000 0.180000 0
[...]
POINT_DATA 2601 

VECTORS velocity float
0.000000 0.000000 0
0.000000 0.000000 0
0.000000 0.000000 0
0.000000 0.000000 0
0.000000 0.000000 0
0.000000 0.000000 0
0.000000 0.000000 0
0.000000 0.000000 0
0.000000 0.000000 0
0.000000 0.000000 0
0.000000 0.000000 0
0.000000 0.000000 0
0.000000 0.000000 0
0.000000 0.000000 0
0.000000 0.000000 0
0.000000 0.000000 0
0.000000 0.000000 0
0.000000 0.000000 0
0.000000 0.000000 0
0.000000 0.000000 0
0.000000 0.000000 0
0.000000 0.000000 0
0.000000 0.000000 0
0.000000 0.000000 0
0.000000 0.000000 0
0.000000 0.000000 0
0.000000 0.000000 0
0.000000 0.000000 0
0.000000 0.000000 0
0.000000 0.000000 0
0.000000 0.000000 0
0.000000 0.000000 0
0.000000 0.000000 0
0.000000 0.000000 0
0.000000 0.000000 0
0.000000 0.000000 0
0.000000 0.000000 0
0.000000 0.000000 0
0.000000 0.000000 0
0.000000 0.000000 0
0.000000 0.000000 0
0.000000 0.000000 0
0.000000 0.000000 0
0.000000 0.000000 0
0.000000 0.000000 0
0.000000 0.000000 0
0.000000 0.000000 0
0.000000 0.000000 0
0.000000 0.000000 0
0.000000 0.000000 0
0.000000 0.000000 0
0.000000 0.000000 0
0.000020 0.000011 0
0.000041 0.000021 0
0.000061 0.000031 0
0.000082 0.000041 0
0.000104 0.000050 0
0.000126 0.000058 0
0.000148 0.000065 0
0.000171 0.000072 0
0.000195 0.000077 0
0.000220 0.000082 0
0.000245 0.000085 0
0.000271 0.000087 0
0.000298 0.000088 0
0.000327 0.000087 0
0.000355 0.000086 0
0.000385 0.000083 0
0.000416 0.000079 0
0.000447 0.000074 0
0.000479 0.000068 0
0.000512 0.000061 0
0.000545 0.000054 0
0.000578 0.000045 0
0.000611 0.000036 0
0.000644 0.000026 0
0.000677 0.000015 0
0.000708 0.000004 0
0.000739 -0.000007 0
0.000768 -0.000018 0
0.000796 -0.000029 0
0.000821 -0.000041 0
0.000842 -0.000051 0
0.000861 -0.000062 0
0.000875 -0.000071 0
0.000884 -0.000080 0
0.000887 -0.000088 0
0.000884 -0.000094 0
0.000874 -0.000099 0
0.000856 -0.000102 0
0.000830 -0.000103 0
0.000795 -0.000102 0
0.000751 -0.000099 0
0.000698 -0.000094 0
0.000635 -0.000087 0
0.000564 -0.000078 0
0.000484 -0.000067 0
0.000397 -0.000054 0
0.000304 -0.000039 0
0.000205 -0.000024 0
0.000104 -0.000008 0
0.000000 0.000000 0
0.000000 0.000000 0
0.000041 0.000021 0
0.000082 0.000042 0
0.000123 0.000063 0
0.000165 0.000082 0
0.000207 0.000100 0
0.000251 0.000117 0
0.000296 0.000132 0
0.000342 0.000145 0
0.000390 0.000156 0
0.000439 0.000165 0
0.000490 0.000171 0
0.000542 0.000175 0
0.000597 0.000177 0
0.000653 0.000176 0
0.000711 0.000173 0
0.000771 0.000168 0
0.000832 0.000160 0
0.000895 0.000151 0
0.000959 0.000139 0
0.001024 0.000125 0
0.001090 0.000109 0
0.001157 0.000092 0
0.001223 0.000073 0
0.001290 0.000053 0
0.001355 0.000032 0
0.001419 0.000011 0
0.001481 -0.000012 0
0.001540 -0.000035 0
0.001595 -0.000057 0
0.001645 -0.000080 0
0.001689 -0.000102 0
0.001726 -0.000123 0
0.001755 -0.000142 0
0.001773 -0.000160 0
0.001781 -0.000175 0
0.001775 -0.000188 0
0.001756 -0.000198 0
0.001721 -0.000204 0
0.001669 -0.000207 0
0.001599 -0.000206 0
0.001511 -0.000200 0
0.001405 -0.000190 0
0.001279 -0.000175 0
0.001136 -0.000157 0
0.000976 -0.000134 0
0.000800 -0.000108 0
0.000612 -0.000079 0
0.000414 -0.000049 0
0.000209 -0.000016 0
0.000000 0.000000 0
0.000000 0.000000 0
0.000061 0.000033 0
0.000122 0.000065 0
0.000184 0.000096 0
0.000247 0.000125 0
0.000311 0.000153 0
0.000376 0.000179 0
0.000443 0.000201 0
0.000513 0.000221 0
0.000584 0.000238 0
0.000658 0.000251 0
0.000734 0.000261 0
0.000813 0.000268 0
0.000895 0.000270 0
0.000980 0.000269 0
0.001067 0.000265 0
0.001156 0.000257 0
0.001249 0.000246 0
0.001343 0.000231 0
0.001440 0.000213 0
0.001538 0.000192 0
0.001637 0.000169 0
0.001738 0.000143 0
0.001838 0.000115 0
0.001938 0.000085 0
0.002037 0.000053 0
0.002134 0.000020 0
0.002227 -0.000014 0
0.002317 -0.000048 0
0.002400 -0.000083 0
0.002477 -0.000117 0
0.002544 -0.000150 0
0.002601 -0.000182 0
0.002646 -0.000211 0
0.002675 -0.000238 0
0.002688 -0.000262 0
0.002681 -0.000282 0
0.002654 -0.000297 0
0.002602 -0.000307 0
0.002526 -0.000312 0
0.002422 -0.000310 0
0.002290 -0.000302 0
0.002130 -0.000287 0
0.001941 -0.000265 0
0.001724 -0.000237 0
0.001482 -0.000203 0
0.001216 -0.000164 0
0.000931 -0.000121 0
0.000629 -0.000074 0
0.000317 -0.000025 0
0.000000 0.000000 0
0.000000 0.000000 0
0.000081 0.000044 0
0.000162 0.000088 0
0.000245 0.000131 0
0.000328 0.000171 0
0.000413 0.000209 0
0.000500 0.000244 0
0.000590 0.000275 0
0.000682 0.000302 0
0.000778 0.000325 0
0.000876 0.000343 0
0.000978 0.000357 0
0.001084 0.000366 0
0.001193 0.000369 0
0.001306 0.000368 0
0.001423 0.000363 0
0.001543 0.000352 0
0.001666 0.000337 0
0.001793 0.000317 0
0.001922 0.000293 0
0.002054 0.000266 0
0.002187 0.000234 0
0.002322 0.000200 0
0.002457 0.000162 0
0.002592 0.000122 0
0.002725 0.000079 0
0.002855 0.000035 0
0.002982 -0.000011 0
0.003103 -0.000057 0
0.003216 -0.000104 0
0.003320 -0.000150 0
0.003413 -0.000195 0
0.003491 -0.000238 0
0.003553 -0.000278 0
0.003595 -0.000316 0
0.003615 -0.000348 0
0.003609 -0.000376 0
0.003575 -0.000397 0
0.003509 -0.000412 0
0.003409 -0.000418 0
0.003272 -0.000417 0
0.003097 -0.000406 0
0.002882 -0.000387 0
0.002629 -0.000358 0
0.002338 -0.000321 0
0.002010 -0.000275 0
0.001651 -0.000222 0
0.001264 -0.000163 0
0.000855 -0.000100 0
0.000431 -0.000034 0
0.000000 0.000000 0
0.000000 0.000000 0
0.000101 0.000057 0
0.000202 0.000113 0
0.000305 0.000168 0
0.000409 0.000220 0
0.000515 0.000269 0
0.000624 0.000313 0
0.000736 0.000354 0
0.000851 0.000389 0
0.000971 0.000418 0
0.001094 0.000442 0
0.001222 0.000459 0
0.001354 0.000471 0
0.001491 0.000476 0
0.001633 0.000475 0
0.001779 0.000468 0
0.001930 0.000455 0
0.002085 0.000436 0
0.002244 0.000412 0
0.002407 0.000382 0
0.002573 0.000347 0
0.002741 0.000308 0
0.002911 0.000264 0
0.003081 0.000217 0
0.003252 0.000166 0
0.003420 0.000112 0
0.003586 0.000056 0
0.003746 -0.000001 0
0.003900 -0.000060 0
0.004046 -0.000119 0
0.004179 -0.000178 0
0.004299 -0.000235 0
0.004401 -0.000291 0
0.004483 -0.000343 0
0.004540 -0.000391 0
0.004570 -0.000433 0
0.004567 -0.000469 0
0.004528 -0.000497 0
0.004450 -0.000517 0
0.004327 -0.000527 0
0.004158 -0.000526 0
0.003940 -0.000514 0
0.003672 -0.000491 0
0.003353 -0.000455 0
0.002984 -0.000408 0
0.002569 -0.000351 0
0.002111 -0.000284 0
0.001617 -0.000209 0
0.001095 -0.000128 0
0.000552 -0.000043 0
0.000000 0.000000 0
0.000000 0.000000 0
0.000121 0.000071 0
0.000242 0.000141 0
0.000365 0.000209 0
0.000489 0.000273 0
0.000616 0.000334 0
0.000747 0.000389 0
0.000881 0.000439 0
0.001020 0.000483 0
0.001163 0.000520 0
0.001311 0.000549 0
0.001465 0.000571 0
0.001624 0.000586 0
0.001789 0.000593 0
0.001960 0.000592 0
0.002136 0.000584 0
0.002318 0.000568 0
0.002506 0.000546 0
0.002698 0.000516 0
0.002895 0.000480 0
0.003096 0.000438 0
0.003300 0.000391 0
0.003506 0.000338 0
0.003713 0.000280 0
0.003920 0.000219 0
0.004125 0.000154 0
0.004328 0.000086 0
0.004524 0.000016 0
0.004713 -0.000056 0
0.004892 -0.000128 0
0.005058 -0.000200 0
0.005207 -0.000271 0
0.005336 -0.000339 0
0.005440 -0.000404 0
0.005516 -0.000463 0
0.005558 -0.000517 0
0.005562 -0.000562 0
0.005521 -0.000599 0
0.005433 -0.000625 0
0.005291 -0.000639 0
0.005091 -0.000640 0
0.004831 -0.000627 0
0.004508 -0.000600 0
0.004122 -0.000558 0
0.003673 -0.000501 0
0.003165 -0.000432 0
0.002604 -0.000350 0
0.001996 -0.000258 0
0.001352 -0.000158 0
0.000683 -0.000053 0
0.000000 0.000000 0
0.000000 0.000000 0
0.000140 0.000086 0
0.000281 0.000171 0
0.000423 0.000254 0
0.000568 0.000332 0
0.000716 0.000406 0
0.000868 0.000473 0
0.001025 0.000534 0
0.001186 0.000587 0
0.001353 0.000631 0
0.001527 0.000667 0
0.001707 0.000694 0
0.001893 0.000712 0
0.002087 0.000721 0
0.002287 0.000721 0
0.002494 0.000712 0
0.002708 0.000694 0
0.002929 0.000667 0
0.003155 0.000633 0
0.003387 0.000591 0
0.003624 0.000541 0
0.003865 0.000485 0
0.004108 0.000423 0
0.004353 0.000356 0
0.004599 0.000283 0
0.004843 0.000206 0
0.005084 0.000125 0
0.005318 0.000042 0
0.005545 -0.000043 0
0.005760 -0.000129 0
0.005960 -0.000215 0
0.006142 -0.000300 0
0.006301 -0.000382 0
0.006431 -0.000460 0
0.006529 -0.000533 0
0.006587 -0.000599 0
0.006601 -0.000655 0
0.006563 -0.000701 0
0.006468 -0.000735 0
0.006309 -0.000755 0
0.006081 -0.000759 0
0.005779 -0.000746 0
0.005402 -0.000716 0
0.004946 -0.000667 0
0.004414 -0.000601 0
0.003809 -0.000519 0
0.003137 -0.000421 0
0.002407 -0.000310 0
0.001632 -0.000190 0
0.000824 -0.000064 0
0.000000 0.000000 0
0.000000 0.000000 0
0.000159 0.000103 0
0.000319 0.000205 0
0.000481 0.000304 0
0.000646 0.000398 0
0.000815 0.000485 0
0.000988 0.000566 0
0.001167 0.000638 0
0.001351 0.000702 0
0.001543 0.000755 0
0.001741 0.000798 0
0.001948 0.000831 0
0.002162 0.000853 0
0.002384 0.000864 0
0.002615 0.000864 0
0.002854 0.000854 0
0.003101 0.000834 0
0.003355 0.000804 0
0.003616 0.000764 0
0.003885 0.000715 0
0.004158 0.000659 0
0.004437 0.000594 0
0.004720 0.000522 0
0.005005 0.000444 0
0.005290 0.000359 0
0.005575 0.000270 0
0.005856 0.000176 0
0.006131 0.000079 0
0.006398 -0.000020 0
0.006652 -0.000121 0
0.006891 -0.000222 0
0.007109 -0.000322 0
0.007301 -0.000420 0
0.007462 -0.000513 0
0.007585 -0.000600 0
0.007665 -0.000679 0
0.007693 -0.000749 0
0.007661 -0.000806 0
0.007563 -0.000849 0
0.007391 -0.000876 0
0.007137 -0.000884 0
0.006797 -0.000873 0
0.006364 -0.000840 0
0.005838 -0.000786 0
0.005219 -0.000710 0
0.004510 -0.000614 0
0.003719 -0.000499 0
0.002857 -0.000369 0
0.001938 -0.000226 0
0.000979 -0.000076 0
0.000000 0.000000 0
0.000000 0.000000 0
0.000178 0.000122 0
0.000357 0.000243 0
0.000538 0.000360 0
0.000723 0.000471 0
0.000912 0.000574 0
0.001106 0.000670 0
0.001307 0.000755 0
0.001514 0.000830 0
0.001730 0.000893 0
0.001954 0.000944 0
0.002188 0.000983 0
0.002430 0.001009 0
0.002682 0.001023 0
0.002943 0.001024 0
0.003215 0.001013 0
0.003495 0.000990 0
0.003784 0.000956 0
0.004082 0.000911 0
0.004388 0.000856 0
0.004700 0.000792 0
0.005019 0.000718 0
0.005342 0.000636 0
0.005668 0.000546 0
0.005996 0.000450 0
0.006324 0.000348 0
0.006648 0.000240 0
0.006967 0.000129 0
0.007276 0.000014 0
0.007573 -0.000102 0
0.007853 -0.000220 0
0.008111 -0.000336 0
0.008341 -0.000450 0
0.008537 -0.000560 0
0.008692 -0.000664 0
0.008797 -0.000759 0
0.008845 -0.000843 0
0.008826 -0.000913 0
0.008730 -0.000968 0
0.008549 -0.001003 0
0.008273 -0.001018 0
0.007894 -0.001009 0
0.007408 -0.000976 0
0.006809 -0.000916 0
0.006098 -0.000830 0
0.005280 -0.000720 0
0.004360 -0.000587 0
0.003354 -0.000434 0
0.002277 -0.000267 0
0.001152 -0.000090 0
0.000000 0.000000 0
0.000000 0.000000 0
0.000196 0.000144 0
0.000393 0.000285 0
0.000593 0.000422 0
0.000797 0.000553 0
0.001006 0.000675 0
0.001221 0.000786 0
0.001444 0.000887 0
0.001675 0.000974 0
0.001915 0.001048 0
0.002165 0.001108 0
0.002426 0.001154 0
0.002697 0.001185 0
0.002979 0.001201 0
0.003273 0.001203 0
0.003577 0.001192 0
0.003892 0.001166 0
0.004218 0.001128 0
0.004553 0.001078 0
0.004898 0.001016 0
0.005251 0.000943 0
0.005611 0.000860 0
0.005977 0.000767 0
0.006347 0.000666 0
0.006719 0.000557 0
0.007092 0.000441 0
0.007462 0.000319 0
0.007827 0.000192 0
0.008183 0.000061 0
0.008526 -0.000072 0
0.008852 -0.000207 0
0.009154 -0.000341 0
0.009427 -0.000474 0
0.009664 -0.000602 0
0.009855 -0.000724 0
0.009993 -0.000837 0
0.010066 -0.000938 0
0.010065 -0.001024 0
0.009978 -0.001092 0
0.009793 -0.001139 0
0.009499 -0.001162 0
0.009086 -0.001158 0
0.008546 -0.001124 0
0.007874 -0.001060 0
0.007067 -0.000965 0
0.006131 -0.000839 0
0.005072 -0.000686 0
0.003907 -0.000508 0
0.002656 -0.000313 0
0.001344 -0.000106 0
0.000000 0.000000 0
0.000000 0.000000 0
0.000213 0.000168 0
0.000429 0.000334 0
0.000647 0.000494 0
0.000869 0.000646 0
0.001098 0.000788 0
0.001334 0.000918 0
0.001578 0.001035 0
0.001833 0.001137 0
0.002098 0.001223 0
0.002374 0.001292 0
0.002662 0.001345 0
0.002963 0.001381 0
0.003276 0.001401 0
0.003602 0.001404 0
0.003941 0.001392 0
0.004293 0.001364 0
0.004656 0.001321 0
0.005031 0.001265 0
0.005416 0.001196 0
0.005811 0.001114 0
0.006215 0.001021 0
0.006625 0.000917 0
0.007042 0.000804 0
0.007461 0.000682 0
0.007882 0.000551 0
0.008302 0.000414 0
0.008716 0.000271 0
0.009122 0.000123 0
0.009516 -0.000029 0
0.009892 -0.000183 0
0.010244 -0.000337 0
0.010565 -0.000489 0
0.010847 -0.000638 0
0.011082 -0.000780 0
0.011259 -0.000913 0
0.011365 -0.001034 0
0.011389 -0.001139 0
0.011317 -0.001224 0
0.011135 -0.001285 0
0.010829 -0.001319 0
0.010386 -0.001322 0
0.009795 -0.001290 0
0.009047 -0.001222 0
0.008141 -0.001116 0
0.007078 -0.000974 0
0.005867 -0.000799 0
0.004527 -0.000594 0
0.003081 -0.000366 0
0.001560 -0.000124 0
0.000000 0.000000 0
0.000000 0.000000 0
0.000230 0.000196 0
0.000462 0.000388 0
0.000698 0.000575 0
0.000938 0.000751 0
0.001186 0.000916 0
0.001443 0.001067 0
0.001709 0.001202 0
0.001987 0.001320 0
0.002276 0.001419 0
0.002579 0.001500 0
0.002896 0.001561 0
0.003227 0.001603 0
0.003573 0.001625 0
0.003933 0.001630 0
0.004307 0.001616 0
0.004696 0.001585 0
0.005099 0.001538 0
0.005515 0.001476 0
0.005943 0.001399 0
0.006383 0.001308 0
0.006833 0.001204 0
0.007291 0.001088 0
0.007756 0.000962 0
0.008225 0.000826 0
0.008697 0.000680 0
0.009169 0.000526 0
0.009637 0.000366 0
0.010098 0.000199 0
0.010546 0.000028 0
0.010977 -0.000146 0
0.011384 -0.000321 0
0.011759 -0.000496 0
0.012094 -0.000668 0
0.012379 -0.000833 0
0.012602 -0.000990 0
0.012750 -0.001133 0
0.012808 -0.001260 0
0.012760 -0.001365 0
0.012589 -0.001444 0
0.012278 -0.001492 0
0.011809 -0.001504 0
0.011170 -0.001476 0
0.010347 -0.001405 0
0.009336 -0.001290 0
0.008138 -0.001131 0
0.006761 -0.000930 0
0.005227 -0.000693 0
0.003562 -0.000428 0
0.001805 -0.000145 0
0.000000 0.000000 0
0.000000 0.000000 0
0.000246 0.000228 0
0.000494 0.000451 0
0.000746 0.000667 0
0.001004 0.000872 0
0.001271 0.001063 0
0.001547 0.001237 0
0.001835 0.001392 0
0.002136 0.001528 0
0.002451 0.001642 0
0.002781 0.001734 0
0.003127 0.001804 0
0.003489 0.001851 0
0.003868 0.001878 0
0.004264 0.001883 0
0.004676 0.001868 0
0.005105 0.001834 0
0.005549 0.001782 0
0.006008 0.001712 0
0.006481 0.001627 0
0.006968 0.001526 0
0.007466 0.001411 0
0.007974 0.001283 0
0.008491 0.001142 0
0.009014 0.000991 0
0.009541 0.000829 0
0.010069 0.000658 0
0.010594 0.000479 0
0.011113 0.000293 0
0.011621 0.000101 0
0.012112 -0.000096 0
0.012580 -0.000294 0
0.013016 -0.000494 0
0.013411 -0.000691 0
0.013755 -0.000882 0
0.014033 -0.001065 0
0.014231 -0.001236 0
0.014332 -0.001388 0
0.014318 -0.001518 0
0.014167 -0.001618 0
0.013860 -0.001684 0
0.013374 -0.001709 0
0.012690 -0.001688 0
0.011794 -0.001616 0
0.010674 -0.001491 0
0.009331 -0.001313 0
0.007772 -0.001084 0
0.006021 -0.000810 0
0.004110 -0.000501 0
0.002085 -0.000170 0
0.000000 0.000000 0
0.000000 0.000000 0
0.000260 0.000264 0
0.000523 0.000523 0
0.000791 0.000773 0
0.001065 0.001010 0
0.001350 0.001230 0
0.001645 0.001430 0
0.001955 0.001609 0
0.002279 0.001763 0
0.002619 0.001894 0
0.002977 0.001998 0
0.003354 0.002078 0
0.003748 0.002132 0
0.004162 0.002161 0
0.004595 0.002167 0
0.005047 0.002151 0
0.005517 0.002113 0
0.006005 0.002055 0
0.006510 0.001977 0
0.007031 0.001882 0
0.007568 0.001771 0
0.008117 0.001643 0
0.008679 0.001502 0
0.009251 0.001347 0
0.009831 0.001179 0
0.010416 0.001000 0
0.011004 0.000811 0
0.011591 0.000612 0
0.012174 0.000404 0
0.012746 0.000190 0
0.013303 -0.000031 0
0.013838 -0.000255 0
0.014342 -0.000481 0
0.014805 -0.000707 0
0.015215 -0.000928 0
0.015558 -0.001141 0
0.015817 -0.001342 0
0.015973 -0.001525 0
0.016004 -0.001684 0
0.015885 -0.001811 0
0.015592 -0.001900 0
0.015098 -0.001942 0
0.014377 -0.001931 0
0.013409 -0.001861 0
0.012178 -0.001727 0
0.010679 -0.001528 0
0.008921 -0.001266 0
0.006927 -0.000950 0
0.004737 -0.000589 0
0.002406 -0.000200 0
0.000000 0.000000 0
0.000000 0.000000 0
0.000273 0.000306 0
0.000549 0.000606 0
0.000831 0.000894 0
0.001121 0.001168 0
0.001422 0.001421 0
0.001737 0.001651 0
0.002067 0.001855 0
0.002415 0.002032 0
0.002781 0.002179 0
0.003168 0.002298 0
0.003575 0.002387 0
0.004004 0.002448 0
0.004455 0.002480 0
0.004927 0.002487 0
0.005420 0.002468 0
0.005935 0.002425 0
0.006469 0.002360 0
0.007023 0.002274 0
0.007595 0.002168 0
0.008184 0.002045 0
0.008789 0.001904 0
0.009408 0.001748 0
0.010038 0.001577 0
0.010679 0.001393 0
0.011327 0.001195 0
0.011979 0.000986 0
0.012633 0.000766 0
0.013283 0.000536 0
0.013926 0.000297 0
0.014555 0.000050 0
0.015164 -0.000202 0
0.015743 -0.000458 0
0.016282 -0.000715 0
0.016768 -0.000970 0
0.017186 -0.001218 0
0.017517 -0.001454 0
0.017740 -0.001672 0
0.017830 -0.001866 0
0.017758 -0.002026 0
0.017493 -0.002144 0
0.017002 -0.002209 0
0.016254 -0.002213 0
0.015218 -0.002147 0
0.013874 -0.002005 0
0.012211 -0.001784 0
0.010233 -0.001486 0
0.007968 -0.001118 0
0.005460 -0.000696 0
0.002777 -0.000236 0
0.000000 0.000000 0
0.000000 0.000000 0
0.000284 0.000354 0
0.000571 0.000701 0
0.000866 0.001035 0
0.001170 0.001350 0
0.001487 0.001641 0
0.001820 0.001904 0
0.002171 0.002137 0
0.002542 0.002338 0
0.002935 0.002504 0
0.003351 0.002637 0
0.003791 0.002737 0
0.004256 0.002803 0
0.004745 0.002839 0
0.005259 0.002845 0
0.005797 0.002822 0
0.006358 0.002773 0
0.006942 0.002700 0
0.007548 0.002604 0
0.008175 0.002487 0
0.008820 0.002350 0
0.009484 0.002195 0
0.010163 0.002023 0
0.010857 0.001835 0
0.011562 0.001633 0
0.012277 0.001415 0
0.012999 0.001185 0
0.013724 0.000942 0
0.014448 0.000688 0
0.015167 0.000422 0
0.015875 0.000148 0
0.016564 -0.000135 0
0.017226 -0.000423 0
0.017850 -0.000715 0
0.018422 -0.001007 0
0.018927 -0.001295 0
0.019343 -0.001572 0
0.019648 -0.001833 0
0.019812 -0.002068 0
0.019802 -0.002268 0
0.019581 -0.002422 0
0.019109 -0.002517 0
0.018345 -0.002542 0
0.017251 -0.002484 0
0.015794 -0.002336 0
0.013956 -0.002091 0
0.011739 -0.001751 0
0.009168 -0.001324 0
0.006298 -0.000826 0
0.003208 -0.000281 0
0.000000 0.000000 0
0.000000 0.000000 0
0.000292 0.000410 0
0.000589 0.000812 0
0.000894 0.001197 0
0.001210 0.001560 0
0.001541 0.001894 0
0.001892 0.002196 0
0.002263 0.002461 0
0.002658 0.002687 0
0.003078 0.002875 0
0.003525 0.003023 0
0.003999 0.003132 0
0.004502 0.003205 0
0.005032 0.003242 0
0.005590 0.003246 0
0.006176 0.003219 0
0.006788 0.003162 0
0.007425 0.003080 0
0.008087 0.002972 0
0.008772 0.002842 0
0.009479 0.002690 0
0.010205 0.002519 0
0.010950 0.002330 0
0.011711 0.002123 0
0.012487 0.001901 0
0.013274 0.001663 0
0.014070 0.001410 0
0.014871 0.001143 0
0.015675 0.000862 0
0.016476 0.000569 0
0.017269 0.000264 0
0.018046 -0.000052 0
0.018799 -0.000376 0
0.019517 -0.000707 0
0.020187 -0.001041 0
0.020790 -0.001373 0
0.021305 -0.001698 0
0.021707 -0.002007 0
0.021962 -0.002292 0
0.022033 -0.002541 0
0.021877 -0.002740 0
0.021443 -0.002875 0
0.020681 -0.002928 0
0.019539 -0.002885 0
0.017973 -0.002733 0
0.015953 -0.002463 0
0.013474 -0.002074 0
0.010561 -0.001576 0
0.007274 -0.000986 0
0.003711 -0.000336 0
0.000000 0.000000 0
0.000000 0.000000 0
0.000298 0.000476 0
0.000601 0.000941 0
0.000913 0.001387 0
0.001239 0.001805 0
0.001584 0.002188 0
0.001950 0.002532 0
0.002341 0.002832 0
0.002760 0.003088 0
0.003208 0.003297 0
0.003687 0.003461 0
0.004198 0.003580 0
0.004740 0.003658 0
0.005315 0.003695 0
0.005921 0.003696 0
0.006558 0.003662 0
0.007224 0.003596 0
0.007920 0.003501 0
0.008642 0.003380 0
0.009391 0.003235 0
0.010163 0.003067 0
0.010958 0.002878 0
0.011773 0.002670 0
0.012607 0.002443 0
0.013457 0.002199 0
0.014321 0.001939 0
0.015197 0.001662 0
0.016081 0.001369 0
0.016971 0.001061 0
0.017860 0.000737 0
0.018745 0.000400 0
0.019618 0.000048 0
0.020471 -0.000316 0
0.021293 -0.000689 0
0.022071 -0.001070 0
0.022786 -0.001453 0
0.023415 -0.001832 0
0.023931 -0.002199 0
0.024297 -0.002543 0
0.024471 -0.002851 0
0.024402 -0.003107 0
0.024030 -0.003291 0
0.023291 -0.003384 0
0.022118 -0.003364 0
0.020452 -0.003213 0
0.018246 -0.002917 0
0.015482 -0.002473 0
0.012183 -0.001888 0
0.008417 -0.001186 0
0.004303 -0.000405 0
0.000000 0.000000 0
0.000000 0.000000 0
0.000300 0.000553 0
0.000605 0.001092 0
0.000922 0.001608 0
0.001255 0.002090 0
0.001611 0.002529 0
0.001992 0.002921 0
0.002402 0.003261 0
0.002845 0.003547 0
0.003322 0.003780 0