# vtk DataFile Version 2.0
generated by CFD-lab course output (written by Tobias Neckel) 
ASCII

DATASET STRUCTURED_GRID
DIMENSIONS  51 51 1 
POINTS 2601 float

0.000000 0.000000 0
0.020000 0.000000 0
0.040000 0.000000 0
0.060000 0.000000 0
0.080000 0.000000 0
0.100000 0.000000 0
0.120000 0.000000 0
0.140000 0.000000 0
0.160000 0.000000 0
0.180000 0.000000 0
0.200000 0.000000 0
0.220000 0.000000 0
0.240000 0.000000 0
0.260000 0.000000 0
0.280000 0.000000 0
0.300000 0.000000 0
0.320000 0.000000 0
0.340000 0.000000 0
0.360000 0.000000 0
0.380000 0.000000 0
0.400000 0.000000 0
0.420000 0.000000 0
0.440000 0.000000 0
0.460000 0.000000 0
0.480000 0.000000 0
0.500000 0.000000 0
0.520000 0.000000 0
0.540000 0.000000 0
0.560000 0.000000 0
0.580000 0.000000 0
0.600000 0.000000 0
0.620000 0.000000 0
0.640000 0.000000 0
0.660000 0.000000 0
0.680000 0.000000 0
0.700000 0.000000 0
0.720000 0.000000 0
0.740000 0.000000 0
0.760000 0.000000 0
0.780000 0.000000 0
0.800000 0.000000 0
0.820000 0.000000 0
0.840000 0.000000 0
0.860000 0.000000 0
0.880000 0.000000 0
0.900000 0.000000 0
0.920000 0.000000 0
0.940000 0.000000 0
0.960000 0.000000 0
0.980000 0.000000 0
1.000000 0.000000 0
0.000000 0.020000 0
0.020000 0.020000 0
0.040000 0.020000 0
0.060000 0.020000 0
0.080000 0.020000 0
0.100000 0.020000 0
0.120000 0.020000 0
0.140000 0.020000 0
0.160000 0.020000 0
0.180000 0.020000 0
0.200000 0.020000 0
0.220000 0.020000 0
0.240000 0.020000 0
0.260000 0.020000 0
0.280000 0.020000 0
0.300000 0.020000 0
0.320000 0.020000 0
0.340000 0.020000 0
0.360000 0.020000 0
0.380000 0.020000 0
0.400000 0.020000 0
0.420000 0.020000 0
0.440000 0.020000 0
0.460000 0.020000 0
0.480000 0.020000 0
0.500000 0.020000 0
0.520000 0.020000 0
0.540000 0.020000 0
0.560000 0.020000 0
0.580000 0.020000 0
0.600000 0.020000 0
0.620000 0.020000 0
0.640000 0.020000 0
0.660000 0.020000 0
0.680000 0.020000 0
0.700000 0.020000 0
0.720000 0.020000 0
0.740000 0.020000 0
0.760000 0.020000 0
0.780000 0.020000 0
0.800000 0.020000 0
0.820000 0.020000 0
0.840000 0.020000 0
0.860000 0.020000 0
0.880000 0.020000 0
0.900000 0.020000 0
0.920000 0.020000 0
0.940000 0.020000 0
0.960000 0.020000 0
0.980000 0.020000 0
1.000000 0.020000 0
0.000000 0.040000 0
0.020000 0.040000 0
0.040000 0.040000 0
0.060000 0.040000 0
0.080000 0.040000 0
0.100000 0.040000 0
0.120000 0.040000 0
0.140000 0.040000 0
0.160000 0.040000 0
0.180000 0.040000 0
0.200000 0.040000 0
0.220000 0.040000 0
0.240000 0.040000 0
0.260000 0.040000 0
0.280000 0.040000 0
0.300000 0.040000 0
0.320000 0.040000 0
0.340000 0.040000 0
0.360000 0.040000 0
0.380000 0.040000 0
0.400000 0.040000 0
0.420000 0.040000 0
0.440000 0.040000 0
0.460000 0.040000 0
0.480000 0.040000 0
0.500000 0.040000 0
0.520000 0.040000 0
0.540000 0.040000 0
0.560000 0.040000 0
0.580000 0.040000 0
0.600000 0.040000 0
0.620000 0.040000 0
0.640000 0.040000 0
0.660000 0.040000 0
0.680000 0.040000 0
0.700000 0.040000 0
0.720000 0.040000 0
0.740000 0.040000 0
0.760000 0.040000 0
0.780000 0.040000 0
0.800000 0.040000 0
0.820000 0.040000 0
0.840000 0.040000 0
0.860000 0.040000 0
0.880000 0.040000 0
0.900000 0.040000 0
0.920000 0.040000 0
0.940000 0.040000 0
0.960000 0.040000 0
0.980000 0.040000 0
1.000000 0.040000 0
0.000000 0.060000 0
0.020000 0.060000 0
0.040000 0.060000 0
0.060000 0.060000 0
0.080000 0.060000 0
0.100000 0.060000 0
0.120000 0.060000 0
0.140000 0.060000 0
0.160000 0.060000 0
0.180000 0.060000 0
0.200000 0.060000 0
0.220000 0.060000 0
0.240000 0.060000 0
0.260000 0.060000 0
0.280000 0.060000 0
0.300000 0.060000 0
0.320000 0.060000 0
0.340000 0.060000 0
0.360000 0.060000 0
0.380000 0.060000 0
0.400000 0.060000 0
0.420000 0.060000 0
0.440000 0.060000 0
0.460000 0.060000 0
0.480000 0.060000 0
0.500000 0.060000 0
0.520000 0.060000 0
0.540000 0.060000 0
0.560000 0.060000 0
0.580000 0.060000 0
0.600000 0.060000 0
0.620000 0.060000 0
0.640000 0.060000 0
0.660000 0.060000 0
0.680000 0.060000 0
0.700000 0.060000 0
0.720000 0.060000 0
0.740000 0.060000 0
0.760000 0.060000 0
0.780000 0.060000 0
0.800000 0.060000 0
0.820000 0.060000 0
0.840000 0.060000 0
0.860000 0.060000 0
0.880000 0.060000 0
0.900000 0.060000 0
0.920000 0.060000 0
0.940000 0.060000 0
0.960000 0.060000 0
0.980000 0.060000 0
1.000000 0.060000 0
0.000000 0.080000 0
0.020000 0.080000 0
0.040000 0.080000 0
0.060000 0.080000 0
0.080000 0.080000 0
0.100000 0.080000 0
0.120000 0.080000 0
0.140000 0.080000 0
0.160000 0.080000 0
0.180000 0.080000 0
0.200000 0.080000 0
0.220000 0.080000 0
0.240000 0.080000 0
0.260000 0.080000 0
0.280000 0.080000 0
0.300000 0.080000 0
0.320000 0.080000 0
0.340000 0.080000 0
0.360000 0.080000 0
0.380000 0.080000 0
0.400000 0.080000 0
0.420000 0.080000 0
0.440000 0.080000 0
0.460000 0.080000 0
0.480000 0.080000 0
0.500000 0.080000 0
0.520000 0.080000 0
0.540000 0.080000 0
0.560000 0.080000 0
0.580000 0.080000 0
0.600000 0.080000 0
0.620000 0.080000 0
0.640000 0.080000 0
0.660000 0.080000 0
0.680000 0.080000 0
0.700000 0.080000 0
0.720000 0.080000 0
0.740000 0.080000 0
0.760000 0.080000 0
0.780000 0.080000 0
0.800000 0.080000 0
0.820000 0.080000 0
0.840000 0.080000 0
0.860000 0.080000 0
0.880000 0.080000 0
0.900000 0.080000 0
0.920000 0.080000 0
0.940000 0.080000 0
0.960000 0.080000 0
0.980000 0.080000 0
1.000000 0.080000 0
0.000000 0.100000 0
0.020000 0.100000 0
0.040000 0.100000 0
0.060000 0.100000 0
0.080000 0.100000 0
0.100000 0.100000 0
0.120000 0.100000 0
0.140000 0.100000 0
0.160000 0.100000 0
0.180000 0.100000 0
0.200000 0.100000 0
0.220000 0.100000 0
0.240000 0.100000 0
0.260000 0.100000 0
0.280000 0.100000 0
0.300000 0.100000 0
0.320000 0.100000 0
0.340000 0.100000 0
0.360000 0.100000 0
0.380000 0.100000 0
0.400000 0.100000 0
0.420000 0.100000 0
0.440000 0.100000 0
0.460000 0.100000 0
0.480000 0.100000 0
0.500000 0.100000 0
0.520000 0.100000 0
0.540000 0.100000 0
0.560000 0.100000 0
0.580000 0.100000 0
0.600000 0.100000 0
0.620000 0.100000 0
0.640000 0.100000 0
0.660000 0.100000 0
0.680000 0.100000 0
0.700000 0.100000 0
0.720000 0.100000 0
0.740000 0.100000 0
0.760000 0.100000 0
0.780000 0.100000 0
0.800000 0.100000 0
0.820000 0.100000 0
0.840000 0.100000 0
0.860000 0.100000 0
0.880000 0.100000 0
0.900000 0.100000 0
0.920000 0.100000 0
0.940000 0.100000 0
0.960000 0.100000 0
0.980000 0.100000 0
1.000000 0.100000 0
0.000000 0.120000 0
0.020000 0.120000 0
0.040000 0.120000 0
0.060000 0.120000 0
0.080000 0.120000 0
0.100000 0.120000 0
0.120000 0.120000 0
0.140000 0.120000 0
0.160000 0.120000 0
0.180000 0.120000 0
0.200000 0.120000 0
0.220000 0.120000 0
0.240000 0.120000 0
0.260000 0.120000 0
0.280000 0.120000 0
0.300000 0.120000 0
0.320000 0.120000 0
0.340000 0.120000 0
0.360000 0.120000 0
0.380000 0.120000 0
0.400000 0.120000 0
0.420000 0.120000 0
0.440000 0.120000 0
0.460000 0.120000 0
0.480000 0.120000 0
0.500000 0.120000 0
0.520000 0.120000 0
0.540000 0.120000 0
0.560000 0.120000 0
0.580000 0.120000 0
0.600000 0.120000 0
0.620000 0.120000 0
0.640000 0.120000 0
0.660000 0.120000 0
0.680000 0.120000 0
0.700000 0.120000 0
0.720000 0.120000 0
0.740000 0.120000 0
0.760000 0.120000 0
0.780000 0.120000 0
0.800000 0.120000 0
0.820000 0.120000 0
0.840000 0.120000 0
0.860000 0.120000 0
0.880000 0.120000 0
0.900000 0.120000 0
0.920000 0.120000 0
0.940000 0.120000 0
0.960000 0.120000 0
0.980000 0.120000 0
1.000000 0.120000 0
0.000000 0.140000 0
0.020000 0.140000 0
0.040000 0.140000 0
0.060000 0.140000 0
0.080000 0.140000 0
0.100000 0.140000 0
0.120000 0.140000 0
0.140000 0.140000 0
0.160000 0.140000 0
0.180000 0.140000 0
0.200000 0.140000 0
0.220000 0.140000 0
0.240000 0.140000 0
0.260000 0.140000 0
0.280000 0.140000 0
0.300000 0.140000 0
0.320000 0.140000 0
0.340000 0.140000 0
0.360000 0.140000 0
0.380000 0.140000 0
0.400000 0.140000 0
0.420000 0.140000 0
0.440000 0.140000 0
0.460000 0.140000 0
0.480000 0.140000 0
0.500000 0.140000 0
0.520000 0.140000 0
0.540000 0.140000 0
0.560000 0.140000 0
0.580000 0.140000 0
0.600000 0.140000 0
0.620000 0.140000 0
0.640000 0.140000 0
0.660000 0.140000 0
0.680000 0.140000 0
0.700000 0.140000 0
0.720000 0.140000 0
0.740000 0.140000 0
0.760000 0.140000 0
0.780000 0.140000 0
0.800000 0.140000 0
0.820000 0.140000 0
0.840000 0.140000 0
0.860000 0.140000 0
0.880000 0.140000 0
0.900000 0.140000 0
0.920000 0.140000 0
0.940000 0.140000 0
0.960000 0.140000 0
0.980000 0.140000 0
1.000000 0.140000 0
0.000000 0.160000 0
0.020000 0.160000 0
0.040000 0.160000 0
0.060000 0.160000 0
0.080000 0.160000 0
0.100000 0.160000 0
0.120000 0.160000 0
0.140000 0.160000 0
0.160000 0.160000 0
0.180000 0.160000 0
0.200000 0.160000 0
0.220000 0.160000 0
0.240000 0.160000 0
0.260000 0.160000 0
0.280000 0.160000 0
0.300000 0.160000 0
0.320000 0.160000 0
0.340000 0.160000 0
0.360000 0.160000 0
0.380000 0.160000 0
0.400000 0.160000 0
0.420000 0.160000 0
0.440000 0.160000 0
0.460000 0.160000 0
0.480000 0.160000 0
0.500000 0.160000 0
0.520000 0.160000 0
0.540000 0.160000 0
0.560000 0.160000 0
0.580000 0.160000 0
0.600000 0.160000 0
0.620000 0.160000 0
0.640000 0.160000 0
0.660000 0.160000 0
0.680000 0.160000 0
0.700000 0.160000 0
0.720000 0.160000 0
0.740000 0.160000 0
0.760000 0.160000 0
0.780000 0.160000 0
0.800000 0.160000 0
0.820000 0.160000 0
0.840000 0.160000 0
0.860000 0.160000 0
0.880000 0.160000 0
0.900000 0.160000 0
0.920000 0.160000 0
0.940000 0.160000 0
0.960000 0.160000 0
0.980000 0.160000 0
1.000000 0.160000 0
0.000000 0.180000 0
0.020000 0.180000 0
0.040000 0.180000 0
0.060000 0.180000 0
0.080000 0.180000 0
0.100000 0.180000 0
0.120000 0.180000 0
0.140000 0.180000 0
0.160000 0.180000 0
0.180000 0.180000 0
0.200000 0.180000 0
0.220000 0.180000 0
0.240000 0.180000 0
0.260000 0.180000 0
0.280000 0.180000 0
0.300000 0.180000 0
0.320000 0.180000 0
0.340000 0.180000 0
0.360000 0.180000 0
0.380000 0.180000 0
0.400000 0.180000 0
0.420000 0.180000 0
0.440000 0.180000 0
0.460000 0.180000 0
0.480000 0.180000 0
0.500000 0.180000 0
0.520000 0.180000 0
0.540000 0.180000 0
0.560000 0.180000 0
0.580000 0.180000 0
0.600000 0.180000 0
0.620000 0.180000 0
[...]
POINT_DATA 2601 

VECTORS velocity float
0.000000 0.000000 0
0.000000 0.000000 0
0.000000 0.000000 0
0.000000 0.000000 0
0.000000 0.000000 0
0.000000 0.000000 0
0.000000 0.000000 0
0.000000 0.000000 0
0.000000 0.000000 0
0.000000 0.000000 0
0.000000 0.000000 0
0.000000 0.000000 0
0.000000 0.000000 0
0.000000 0.000000 0
0.000000 0.000000 0
0.000000 0.000000 0
0.000000 0.000000 0
0.000000 0.000000 0
0.000000 0.000000 0
0.000000 0.000000 0
0.000000 0.000000 0
0.000000 0.000000 0
0.000000 0.000000 0
0.000000 0.000000 0
0.000000 0.000000 0
0.000000 0.000000 0
0.000000 0.000000 0
0.000000 0.000000 0
0.000000 0.000000 0
0.000000 0.000000 0
0.000000 0.000000 0
-0.000000 0.000000 0
-0.000000 0.000000 0
-0.000000 0.000000 0
-0.000000 0.000000 0
-0.000000 0.000000 0
-0.000000 0.000000 0
-0.000000 0.000000 0
-0.000000 0.000000 0
-0.000000 0.000000 0
-0.000000 0.000000 0
-0.000000 0.000000 0
-0.000000 0.000000 0
-0.000000 0.000000 0
-0.000000 0.000000 0
-0.000000 0.000000 0
-0.000000 0.000000 0
-0.000000 0.000000 0
-0.000000 0.000000 0
-0.000000 0.000000 0
0.000000 0.000000 0
0.000000 0.000000 0
0.000019 -0.000002 0
0.000038 -0.000004 0
0.000058 -0.000008 0
0.000079 -0.000013 0
0.000101 -0.000021 0
0.000125 -0.000031 0
0.000150 -0.000045 0
0.000177 -0.000062 0
0.000207 -0.000084 0
0.000239 -0.000111 0
0.000275 -0.000144 0
0.000314 -0.000182 0
0.000356 -0.000227 0
0.000402 -0.000280 0
0.000453 -0.000340 0
0.000508 -0.000410 0
0.000569 -0.000488 0
0.000635 -0.000578 0
0.000708 -0.000679 0
0.000787 -0.000792 0
0.000873 -0.000920 0
0.000967 -0.001062 0
0.001070 -0.001220 0
0.001181 -0.001397 0
0.001302 -0.001592 0
0.001433 -0.001808 0
0.001575 -0.002045 0
0.001728 -0.002305 0
0.001891 -0.002587 0
0.002065 -0.002892 0
0.002249 -0.003218 0
0.002441 -0.003562 0
0.002639 -0.003919 0
0.002838 -0.004284 0
0.003034 -0.004645 0
0.003220 -0.004991 0
0.003387 -0.005306 0
0.003524 -0.005569 0
0.003620 -0.005758 0
0.003663 -0.005850 0
0.003638 -0.005820 0
0.003535 -0.005650 0
0.003345 -0.005324 0
0.003067 -0.004836 0
0.002700 -0.004193 0
0.002255 -0.003411 0
0.001746 -0.002516 0
0.001188 -0.001541 0
0.000600 -0.000519 0
0.000000 0.000000 0
0.000000 0.000000 0
0.000038 -0.000003 0
0.000076 -0.000007 0
0.000116 -0.000014 0
0.000157 -0.000024 0
0.000201 -0.000038 0
0.000248 -0.000058 0
0.000298 -0.000085 0
0.000352 -0.000120 0
0.000411 -0.000163 0
0.000476 -0.000216 0
0.000546 -0.000281 0
0.000623 -0.000357 0
0.000708 -0.000446 0
0.000800 -0.000551 0
0.000901 -0.000671 0
0.001011 -0.000808 0
0.001132 -0.000965 0
0.001263 -0.001142 0
0.001407 -0.001342 0
0.001564 -0.001567 0
0.001735 -0.001820 0
0.001922 -0.002102 0
0.002125 -0.002416 0
0.002346 -0.002765 0
0.002586 -0.003152 0
0.002845 -0.003580 0
0.003126 -0.004050 0
0.003428 -0.004564 0
0.003752 -0.005123 0
0.004096 -0.005727 0
0.004460 -0.006372 0
0.004841 -0.007055 0
0.005232 -0.007765 0
0.005628 -0.008490 0
0.006019 -0.009212 0
0.006390 -0.009905 0
0.006725 -0.010539 0
0.007004 -0.011073 0
0.007203 -0.011465 0
0.007296 -0.011665 0
0.007258 -0.011627 0
0.007063 -0.011306 0
0.006696 -0.010673 0
0.006148 -0.009714 0
0.005423 -0.008437 0
0.004535 -0.006874 0
0.003514 -0.005077 0
0.002393 -0.003111 0
0.001210 -0.001048 0
0.000000 0.000000 0
0.000000 0.000000 0
0.000056 -0.000003 0
0.000113 -0.000008 0
0.000172 -0.000016 0
0.000233 -0.000030 0
0.000298 -0.000050 0
0.000367 -0.000079 0
0.000442 -0.000117 0
0.000523 -0.000168 0
0.000611 -0.000231 0
0.000707 -0.000310 0
0.000811 -0.000404 0
0.000926 -0.000517 0
0.001051 -0.000650 0
0.001189 -0.000804 0
0.001339 -0.000982 0
0.001503 -0.001185 0
0.001682 -0.001417 0
0.001877 -0.001680 0
0.002091 -0.001976 0
0.002324 -0.002309 0
0.002577 -0.002682 0
0.002854 -0.003100 0
0.003154 -0.003564 0
0.003481 -0.004081 0
0.003835 -0.004653 0
0.004219 -0.005284 0
0.004634 -0.005978 0
0.005080 -0.006738 0
0.005558 -0.007565 0
0.006066 -0.008458 0
0.006604 -0.009413 0
0.007167 -0.010425 0
0.007747 -0.011481 0
0.008336 -0.012563 0
0.008918 -0.013643 0
0.009475 -0.014688 0
0.009983 -0.015650 0
0.010411 -0.016473 0
0.010725 -0.017091 0
0.010885 -0.017432 0
0.010852 -0.017419 0
0.010587 -0.016987 0
0.010063 -0.016081 0
0.009262 -0.014676 0
0.008188 -0.012779 0
0.006863 -0.010435 0
0.005326 -0.007720 0
0.003632 -0.004738 0
0.001838 -0.001596 0
0.000000 0.000000 0
0.000000 0.000000 0
0.000073 -0.000001 0
0.000148 -0.000005 0
0.000225 -0.000013 0
0.000305 -0.000028 0
0.000391 -0.000052 0
0.000482 -0.000088 0
0.000580 -0.000137 0
0.000687 -0.000201 0
0.000802 -0.000283 0
0.000929 -0.000385 0
0.001067 -0.000509 0
0.001218 -0.000656 0
0.001383 -0.000829 0
0.001564 -0.001031 0
0.001762 -0.001264 0
0.001978 -0.001531 0
0.002214 -0.001835 0
0.002471 -0.002179 0
0.002752 -0.002567 0
0.003058 -0.003004 0
0.003391 -0.003492 0
0.003753 -0.004038 0
0.004147 -0.004646 0
0.004575 -0.005322 0
0.005038 -0.006069 0
0.005540 -0.006895 0
0.006082 -0.007802 0
0.006664 -0.008796 0
0.007289 -0.009878 0
0.007954 -0.011047 0
0.008657 -0.012301 0
0.009394 -0.013631 0
0.010157 -0.015024 0
0.010932 -0.016455 0
0.011704 -0.017894 0
0.012447 -0.019295 0
0.013132 -0.020600 0
0.013720 -0.021736 0
0.014164 -0.022614 0
0.014413 -0.023136 0
0.014411 -0.023199 0
0.014105 -0.022705 0
0.013450 -0.021574 0
0.012422 -0.019760 0
0.011015 -0.017263 0
0.009257 -0.014137 0
0.007200 -0.010483 0
0.004917 -0.006444 0
0.002491 -0.002173 0
0.000000 0.000000 0
0.000000 0.000000 0
0.000090 0.000003 0
0.000181 0.000003 0
0.000275 -0.000002 0
0.000374 -0.000017 0
0.000478 -0.000043 0
0.000590 -0.000083 0
0.000711 -0.000140 0
0.000842 -0.000216 0
0.000984 -0.000314 0
0.001140 -0.000437 0
0.001310 -0.000587 0
0.001497 -0.000766 0
0.001700 -0.000978 0
0.001923 -0.001225 0
0.002167 -0.001510 0
0.002433 -0.001837 0
0.002724 -0.002209 0
0.003040 -0.002630 0
0.003385 -0.003105 0
0.003761 -0.003638 0
0.004169 -0.004236 0
0.004613 -0.004903 0
0.005095 -0.005645 0
0.005619 -0.006470 0
0.006185 -0.007383 0
0.006798 -0.008391 0
0.007459 -0.009499 0
0.008170 -0.010712 0
0.008931 -0.012035 0
0.009743 -0.013466 0
0.010603 -0.015004 0
0.011505 -0.016641 0
0.012442 -0.018359 0
0.013398 -0.020135 0
0.014355 -0.021932 0
0.015286 -0.023697 0
0.016153 -0.025361 0
0.016912 -0.026837 0
0.017505 -0.028014 0
0.017868 -0.028770 0
0.017927 -0.028967 0
0.017613 -0.028474 0
0.016864 -0.027176 0
0.015635 -0.024999 0
0.013916 -0.021928 0
0.011733 -0.018019 0
0.009150 -0.013399 0
0.006261 -0.008253 0
0.003176 -0.002786 0
0.000000 0.000000 0
0.000000 0.000000 0
0.000105 0.000011 0
0.000211 0.000018 0
0.000321 0.000018 0
0.000436 0.000007 0
0.000558 -0.000018 0
0.000690 -0.000060 0
0.000832 -0.000122 0
0.000986 -0.000207 0
0.001154 -0.000319 0
0.001338 -0.000460 0
0.001539 -0.000634 0
0.001759 -0.000843 0
0.001999 -0.001089 0
0.002263 -0.001378 0
0.002550 -0.001711 0
0.002864 -0.002094 0
0.003207 -0.002529 0
0.003580 -0.003022 0
0.003986 -0.003578 0
0.004428 -0.004203 0
0.004907 -0.004901 0
0.005428 -0.005681 0
0.005993 -0.006549 0
0.006606 -0.007512 0
0.007268 -0.008578 0
0.007984 -0.009755 0
0.008756 -0.011050 0
0.009586 -0.012469 0
0.010476 -0.014017 0
0.011424 -0.015695 0
0.012430 -0.017503 0
0.013489 -0.019431 0
0.014590 -0.021466 0
0.015721 -0.023580 0
0.016860 -0.025734 0
0.017978 -0.027872 0
0.019033 -0.029914 0
0.019975 -0.031760 0
0.020736 -0.033281 0
0.021239 -0.034326 0
0.021394 -0.034726 0
0.021111 -0.034306 0
0.020304 -0.032910 0
0.018910 -0.030425 0
0.016904 -0.026811 0
0.014306 -0.022120 0
0.011190 -0.016502 0
0.007674 -0.010187 0
0.003897 -0.003444 0
0.000000 0.000000 0
0.000000 0.000000 0
0.000118 0.000022 0
0.000238 0.000040 0
0.000362 0.000049 0
0.000492 0.000046 0
0.000631 0.000026 0
0.000780 -0.000014 0
0.000941 -0.000079 0
0.001117 -0.000170 0
0.001309 -0.000293 0
0.001519 -0.000449 0
0.001749 -0.000643 0
0.002002 -0.000878 0
0.002278 -0.001157 0
0.002579 -0.001483 0
0.002909 -0.001861 0
0.003269 -0.002295 0
0.003661 -0.002789 0
0.004087 -0.003349 0
0.004551 -0.003980 0
0.005055 -0.004688 0
0.005602 -0.005480 0
0.006195 -0.006363 0
0.006837 -0.007346 0
0.007532 -0.008437 0
0.008284 -0.009644 0
0.009096 -0.010977 0
0.009970 -0.012445 0
0.010910 -0.014054 0
0.011918 -0.015812 0
0.012993 -0.017722 0
0.014135 -0.019784 0
0.015340 -0.021991 0
0.016598 -0.024331 0
0.017896 -0.026778 0
0.019212 -0.029290 0
0.020516 -0.031809 0
0.021765 -0.034249 0
0.022900 -0.036498 0
0.023849 -0.038410 0
0.024519 -0.039806 0
0.024806 -0.040481 0
0.024594 -0.040215 0
0.023773 -0.038799 0
0.022253 -0.036071 0
0.019987 -0.031952 0
0.016987 -0.026482 0
0.013334 -0.019828 0
0.009167 -0.012271 0
0.004663 -0.004154 0
0.000000 0.000000 0
0.000000 0.000000 0
0.000129 0.000038 0
0.000260 0.000071 0
0.000397 0.000094 0
0.000540 0.000102 0
0.000693 0.000091 0
0.000858 0.000056 0
0.001038 -0.000006 0
0.001234 -0.000100 0
0.001448 -0.000230 0
0.001683 -0.000399 0
0.001941 -0.000610 0
0.002223 -0.000867 0
0.002533 -0.001175 0
0.002871 -0.001535 0
0.003241 -0.001954 0
0.003644 -0.002434 0
0.004082 -0.002982 0
0.004560 -0.003603 0
0.005078 -0.004302 0
0.005640 -0.005086 0
0.006250 -0.005963 0
0.006910 -0.006942 0
0.007625 -0.008030 0
0.008397 -0.009237 0
0.009231 -0.010574 0
0.010131 -0.012050 0
0.011099 -0.013675 0
0.012141 -0.015460 0
0.013257 -0.017413 0
0.014449 -0.019539 0
0.015718 -0.021841 0
0.017059 -0.024316 0
0.018465 -0.026951 0
0.019922 -0.029724 0
0.021412 -0.032596 0
0.022901 -0.035505 0
0.024347 -0.038364 0
0.025687 -0.041049 0
0.026841 -0.043401 0
0.027706 -0.045213 0
0.028158 -0.046242 0
0.028060 -0.046217 0
0.027271 -0.044869 0
0.025668 -0.041971 0
0.023176 -0.037392 0
0.019790 -0.031146 0
0.015593 -0.023415 0
0.010750 -0.014533 0
0.005477 -0.004927 0
0.000000 0.000000 0
0.000000 0.000000 0
0.000138 0.000059 0
0.000279 0.000113 0
0.000425 0.000155 0
0.000579 0.000179 0
0.000745 0.000182 0
0.000924 0.000157 0
0.001120 0.000100 0
0.001334 0.000007 0
0.001568 -0.000126 0
0.001826 -0.000303 0
0.002110 -0.000528 0
0.002421 -0.000805 0
0.002762 -0.001137 0
0.003135 -0.001528 0
0.003543 -0.001983 0
0.003987 -0.002506 0
0.004471 -0.003102 0
0.004996 -0.003778 0
0.005566 -0.004539 0
0.006183 -0.005393 0
0.006852 -0.006348 0
0.007575 -0.007412 0
0.008356 -0.008595 0
0.009200 -0.009908 0
0.010110 -0.011362 0
0.011091 -0.012968 0
0.012146 -0.014739 0
0.013280 -0.016685 0
0.014496 -0.018818 0
0.015797 -0.021146 0
0.017182 -0.023675 0
0.018650 -0.026405 0
0.020196 -0.029327 0
0.021807 -0.032422 0
0.023464 -0.035654 0
0.025137 -0.038964 0
0.026782 -0.042261 0
0.028336 -0.045418 0
0.029711 -0.048259 0
0.030797 -0.050554 0
0.031451 -0.052019 0
0.031510 -0.052330 0
0.030800 -0.051145 0
0.029161 -0.048160 0
0.026479 -0.043175 0
0.022726 -0.036162 0
0.017982 -0.027306 0
0.012434 -0.017001 0
0.006347 -0.005773 0
0.000000 0.000000 0
0.000000 0.000000 0
0.000144 0.000087 0
0.000292 0.000167 0
0.000445 0.000234 0
0.000609 0.000281 0
0.000784 0.000302 0
0.000975 0.000292 0
0.001185 0.000245 0
0.001415 0.000158 0
0.001668 0.000025 0
0.001948 -0.000157 0
0.002256 -0.000392 0
0.002594 -0.000685 0
0.002965 -0.001038 0
0.003371 -0.001456 0
0.003815 -0.001943 0
0.004298 -0.002504 0
0.004824 -0.003145 0
0.005395 -0.003870 0
0.006014 -0.004688 0
0.006683 -0.005604 0
0.007407 -0.006629 0
0.008189 -0.007771 0
0.009033 -0.009040 0
0.009943 -0.010449 0
0.010923 -0.012008 0
0.011979 -0.013733 0
0.013114 -0.015635 0
0.014334 -0.017730 0
0.015642 -0.020030 0
0.017042 -0.022547 0
0.018536 -0.025290 0
0.020123 -0.028264 0
0.021800 -0.031465 0
0.023557 -0.034878 0
0.025377 -0.038472 0
0.027231 -0.042192 0
0.029078 -0.045949 0
0.030852 -0.049611 0
0.032465 -0.052991 0
0.033794 -0.055838 0
0.034682 -0.057827 0
0.034941 -0.058573 0
0.034360 -0.057656 0
0.032734 -0.054678 0
0.029904 -0.049349 0
0.025807 -0.041579 0
0.020512 -0.031548 0
0.014231 -0.019709 0
0.007278 -0.006705 0
0.000000 0.000000 0
0.000000 0.000000 0
0.000148 0.000122 0
0.000299 0.000236 0
0.000457 0.000334 0
0.000626 0.000409 0
0.000810 0.000455 0
0.001010 0.000465 0
0.001231 0.000434 0
0.001475 0.000357 0
0.001746 0.000228 0
0.002045 0.000045 0
0.002375 -0.000197 0
0.002739 -0.000502 0
0.003139 -0.000873 0
0.003576 -0.001314 0
0.004055 -0.001830 0
0.004576 -0.002425 0
0.005142 -0.003105 0
0.005757 -0.003876 0
0.006422 -0.004744 0
0.007141 -0.005717 0
0.007918 -0.006804 0
0.008755 -0.008016 0
0.009658 -0.009363 0
0.010630 -0.010857 0
0.011675 -0.012513 0
0.012800 -0.014344 0
0.014010 -0.016367 0
0.015308 -0.018598 0
0.016702 -0.021052 0
0.018194 -0.023746 0
0.019789 -0.026692 0
0.021487 -0.029900 0
0.023288 -0.033372 0
0.025185 -0.037100 0
0.027162 -0.041059 0
0.029195 -0.045199 0
0.031244 -0.049436 0
0.033245 -0.053638 0
0.035106 -0.057609 0
0.036699 -0.061076 0
0.037854 -0.063679 0
0.038354 -0.064967 0
0.037951 -0.064432 0
0.036390 -0.061565 0
0.033456 -0.055964 0
0.029041 -0.047453 0
0.023196 -0.036192 0
0.016150 -0.022694 0
0.008277 -0.007736 0
0.000000 0.000000 0
0.000000 0.000000 0
0.000148 0.000165 0
0.000299 0.000321 0
0.000459 0.000458 0
0.000631 0.000570 0
0.000819 0.000647 0
0.001026 0.000683 0
0.001257 0.000673 0
0.001513 0.000610 0
0.001798 0.000490 0
0.002115 0.000309 0
0.002467 0.000064 0
0.002855 -0.000250 0
0.003281 -0.000636 0
0.003750 -0.001098 0
0.004261 -0.001639 0
0.004819 -0.002265 0
0.005425 -0.002980 0
0.006081 -0.003791 0
0.006791 -0.004705 0
0.007558 -0.005729 0
0.008385 -0.006873 0
0.009276 -0.008147 0
0.010234 -0.009563 0
0.011264 -0.011135 0
0.012372 -0.012877 0
0.013562 -0.014805 0
0.014840 -0.016938 0
0.016213 -0.019293 0
0.017685 -0.021891 0
0.019263 -0.024750 0
0.020952 -0.027889 0
0.022755 -0.031322 0
0.024674 -0.035059 0
0.026703 -0.039100 0
0.028833 -0.043426 0
0.031041 -0.047996 0
0.033291 -0.052733 0
0.035522 -0.057508 0
0.037642 -0.062120 0
0.039518 -0.066280 0
0.040966 -0.069589 0
0.041747 -0.071531 0
0.041571 -0.071501 0
0.040128 -0.068862 0
0.037140 -0.063073 0
0.032438 -0.053845 0
0.026043 -0.041294 0
0.018202 -0.025996 0
0.009350 -0.008880 0
0.000000 0.000000 0
0.000000 0.000000 0
0.000144 0.000218 0
0.000292 0.000425 0
0.000450 0.000611 0
0.000621 0.000767 0
0.000811 0.000883 0
0.001022 0.000952 0
0.001259 0.000967 0
0.001525 0.000924 0
0.001823 0.000817 0
0.002157 0.000642 0
0.002528 0.000396 0
0.002939 0.000076 0
0.003392 -0.000322 0
0.003890 -0.000802 0
0.004434 -0.001366 0
0.005027 -0.002019 0
0.005672 -0.002767 0
0.006370 -0.003615 0
0.007124 -0.004569 0
0.007937 -0.005639 0
0.008813 -0.006834 0
0.009754 -0.008164 0
0.010766 -0.009643 0
0.011853 -0.011284 0
0.013019 -0.013103 0
0.014271 -0.015119 0
0.015614 -0.017352 0
0.017056 -0.019822 0
0.018603 -0.022552 0
0.020261 -0.025567 0
0.022039 -0.028889 0
0.023941 -0.032540 0
0.025970 -0.036536 0
0.028127 -0.040886 0
0.030404 -0.045581 0
0.032783 -0.050592 0
0.035232 -0.055849 0
0.037694 -0.061230 0
0.040080 -0.066535 0
0.042254 -0.071459 0
0.044021 -0.075569 0
0.045118 -0.078284 0
0.045218 -0.078892 0
0.043948 -0.076610 0
0.040956 -0.070730 0
0.036002 -0.060816 0
0.029062 -0.046916 0
0.020394 -0.029660 0
0.010502 -0.010154 0
0.000000 0.000000 0
0.000000 0.000000 0
0.000135 0.000282 0
0.000276 0.000552 0
0.000428 0.000797 0
0.000595 0.001005 0
0.000782 0.001169 0
0.000994 0.001278 0
0.001235 0.001326 0
0.001509 0.001307 0
0.001818 0.001217 0
0.002166 0.001051 0
0.002556 0.000808 0
0.002989 0.000483 0
0.003468 0.000075 0
0.003995 -0.000421 0
0.004572 -0.001006 0
0.005201 -0.001684 0
0.005884 -0.002461 0
0.006623 -0.003343 0
0.007420 -0.004335 0
0.008280 -0.005447 0
0.009204 -0.006687 0
0.010196 -0.008068 0
0.011260 -0.009603 0
0.012401 -0.011306 0
0.013624 -0.013196 0
0.014935 -0.015291 0
0.016341 -0.017614 0
0.017849 -0.020190 0
0.019466 -0.023044 0
0.021201 -0.026204 0
0.023063 -0.029701 0
0.025058 -0.033561 0
0.027193 -0.037811 0
0.029471 -0.042467 0
0.031889 -0.047535 0
0.034435 -0.052995 0
0.037080 -0.058792 0
0.039774 -0.064812 0
0.042430 -0.070859 0
0.044912 -0.076621 0
0.047019 -0.081630 0
0.048466 -0.085242 0
0.048885 -0.086629 0
0.047842 -0.084848 0
0.044901 -0.078989 0
0.039733 -0.068432 0
0.032259 -0.053121 0
0.022734 -0.033733 0
0.011737 -0.011576 0
0.000000 0.000000 0
0.000000 0.000000 0
0.000122 0.000360 0
0.000250 0.000705 0
0.000391 0.001020 0
0.000549 0.001293 0
0.000730 0.001513 0
0.000940 0.001670 0
0.001182 0.001756 0
0.001461 0.001767 0
0.001779 0.001698 0
0.002141 0.001545 0
0.002548 0.001306 0
0.003003 0.000978 0
0.003508 0.000561 0
0.004064 0.000051 0
0.004674 -0.000553 0
0.005339 -0.001256 0
0.006061 -0.002061 0
0.006841 -0.002974 0
0.007683 -0.004001 0
0.008589 -0.005151 0
0.009562 -0.006434 0
0.010604 -0.007860 0
0.011721 -0.009445 0
0.012916 -0.011205 0
0.014195 -0.013157 0
0.015564 -0.015325 0
0.017031 -0.017731 0
0.018602 -0.020403 0
0.020287 -0.023371 0
0.022096 -0.026670 0
0.024037 -0.030332 0
0.026122 -0.034395 0
0.028358 -0.038892 0
0.030752 -0.043853 0
0.033306 -0.049295 0
0.036013 -0.055213 0
0.038850 -0.061567 0
0.041773 -0.068258 0
0.044701 -0.075097 0
0.047499 -0.081768 0
0.049961 -0.087778 0
0.051786 -0.092416 0
0.052566 -0.094736 0
0.051802 -0.093612 0
0.048966 -0.087903 0
0.043629 -0.076756 0
0.035633 -0.059974 0
0.025225 -0.038266 0
0.013058 -0.013164 0
0.000000 0.000000 0
0.000000 0.000000 0
0.000103 0.000454 0
0.000213 0.000889 0
0.000336 0.001289 0
0.000481 0.001639 0
0.000652 0.001925 0
0.000855 0.002138 0
0.001096 0.002270 0
0.001377 0.002316 0
0.001703 0.002271 0
0.002077 0.002132 0
0.002501 0.001899 0
0.002977 0.001570 0
0.003508 0.001144 0
0.004095 0.000620 0
0.004738 -0.000004 0
0.005441 -0.000730 0
0.006203 -0.001563 0
0.007027 -0.002506 0
0.007915 -0.003566 0
0.008869 -0.004752 0
0.009891 -0.006073 0
0.010985 -0.007542 0
0.012155 -0.009173 0
0.013405 -0.010983 0
0.014740 -0.012992 0
0.016167 -0.015224 0
0.017694 -0.017706 0
0.019328 -0.020467 0
0.021080 -0.023542 0
0.022959 -0.026969 0
0.024977 -0.030789 0
0.027147 -0.035047 0
0.029480 -0.039786 0
0.031986 -0.045048 0
0.034670 -0.050865 0
0.037532 -0.057249 0
0.040556 -0.064177 0
0.043704 -0.071569 0
0.046901 -0.079249 0
0.050019 -0.086903 0
0.052848 -0.094016 0
0.055072 -0.099815 0
0.056249 -0.103230 0
0.055814 -0.102935 0
0.053138 -0.097522 0
0.047678 -0.085854 0
0.039178 -0.067543 0
0.027864 -0.043308 0
0.014464 -0.014939 0
0.000000 0.000000 0
0.000000 0.000000 0
0.000077 0.000567 0
0.000161 0.001111 0
0.000262 0.001612 0
0.000388 0.002052 0
0.000543 0.002417 0
0.000736 0.002696 0
0.000971 0.002880 0
0.001252 0.002965 0
0.001584 0.002947 0
0.001969 0.002825 0
0.002410 0.002598 0
0.002909 0.002267 0
0.003467 0.001831 0
0.004085 0.001292 0
0.004764 0.000648 0
0.005506 -0.000103 0
0.006311 -0.000962 0
0.007181 -0.001936 0
0.008118 -0.003028 0
0.009122 -0.004248 0
0.010196 -0.005606 0
0.011344 -0.007114 0
0.012569 -0.008786 0
0.013875 -0.010643 0
0.015268 -0.012704 0
0.016755 -0.014994 0
0.018342 -0.017544 0
0.020039 -0.020387 0
0.021856 -0.023560 0
0.023805 -0.027107 0
0.025898 -0.031078 0
0.028151 -0.035523 0
0.030577 -0.040498 0
0.033189 -0.046057 0
0.035999 -0.052249 0
0.039010 -0.059104 0
0.042214 -0.066622 0
0.045580 -0.074743 0
0.049043 -0.083312 0
0.052479 -0.092022 0
0.055681 -0.100342 0
0.058321 -0.107441 0
0.059924 -0.112123 0
0.059859 -0.112844 0
0.057397 -0.107890 0
0.051861 -0.095785 0
0.042881 -0.075891 0
0.030644 -0.048913 0
0.015954 -0.016918 0
0.000000 0.000000 0
0.000000 0.000000 0
0.000042 0.000703 0
0.000094 0.001377 0
0.000165 0.001999 0
0.000264 0.002547 0
0.000399 0.003004 0
0.000576 0.003359 0
0.000802 0.003602 0
0.001081 0.003731 0
0.001417 0.003742 0
0.001813 0.003636 0
0.002271 0.003414 0
0.002793 0.003079 0
0.003379 0.002632 0
0.004031 0.002075 0
0.004750 0.001409 0
0.005534 0.000632 0
0.006386 -0.000257 0
0.007305 -0.001261 0
0.008293 -0.002386 0
0.009352 -0.003640 0
0.010482 -0.005033 0
0.011687 -0.006577 0
0.012970 -0.008289 0
0.014336 -0.010187 0
0.015789 -0.012295 0
0.017337 -0.014639 0
0.018986 -0.017250 0
0.020747 -0.020167 0
0.022630 -0.023431 0
0.024648 -0.027091 0
0.026816 -0.031202 0
0.029149 -0.035827 0
0.031665 -0.041030 0
0.034380 -0.046882 0
0.037309 -0.053447 0
0.040463 -0.060778 0
0.043839 -0.068899 0
0.047416 -0.077777 0
0.051137 -0.087281 0
0.054887 -0.097117 0
0.058460 -0.106750 0