# vtk DataFile Version 2.0
generated by CFD-lab course output (written by Tobias Neckel) 
ASCII

DATASET STRUCTURED_GRID
DIMENSIONS  51 51 1 
POINTS 2601 float

0.000000 0.000000 0
0.020000 0.000000 0
0.040000 0.000000 0
0.060000 0.000000 0
0.080000 0.000000 0
0.100000 0.000000 0
0.120000 0.000000 0
0.140000 0.000000 0
0.160000 0.000000 0
0.180000 0.000000 0
0.200000 0.000000 0
0.220000 0.000000 0
0.240000 0.000000 0
0.260000 0.000000 0
0.280000 0.000000 0
0.300000 0.000000 0
0.320000 0.000000 0
0.340000 0.000000 0
0.360000 0.000000 0
0.380000 0.000000 0
0.400000 0.000000 0
0.420000 0.000000 0
0.440000 0.000000 0
0.460000 0.000000 0
0.480000 0.000000 0
0.500000 0.000000 0
0.520000 0.000000 0
0.540000 0.000000 0
0.560000 0.000000 0
0.580000 0.000000 0
0.600000 0.000000 0
0.620000 0.000000 0
0.640000 0.000000 0
0.660000 0.000000 0
0.680000 0.000000 0
0.700000 0.000000 0
0.720000 0.000000 0
0.740000 0.000000 0
0.760000 0.000000 0
0.780000 0.000000 0
0.800000 0.000000 0
0.820000 0.000000 0
0.840000 0.000000 0
0.860000 0.000000 0
0.880000 0.000000 0
0.900000 0.000000 0
0.920000 0.000000 0
0.940000 0.000000 0
0.960000 0.000000 0
0.980000 0.000000 0
1.000000 0.000000 0
0.000000 0.020000 0
0.020000 0.020000 0
0.040000 0.020000 0
0.060000 0.020000 0
0.080000 0.020000 0
0.100000 0.020000 0
0.120000 0.020000 0
0.140000 0.020000 0
0.160000 0.020000 0
0.180000 0.020000 0
0.200000 0.020000 0
0.220000 0.020000 0
0.240000 0.020000 0
0.260000 0.020000 0
0.280000 0.020000 0
0.300000 0.020000 0
0.320000 0.020000 0
0.340000 0.020000 0
0.360000 0.020000 0
0.380000 0.020000 0
0.400000 0.020000 0
0.420000 0.020000 0
0.440000 0.020000 0
0.460000 0.020000 0
0.480000 0.020000 0
0.500000 0.020000 0
0.520000 0.020000 0
0.540000 0.020000 0
0.560000 0.020000 0
0.580000 0.020000 0
0.600000 0.020000 0
0.620000 0.020000 0
0.640000 0.020000 0
0.660000 0.020000 0
0.680000 0.020000 0
0.700000 0.020000 0
0.720000 0.020000 0
0.740000 0.020000 0
0.760000 0.020000 0
0.780000 0.020000 0
0.800000 0.020000 0
0.820000 0.020000 0
0.840000 0.020000 0
0.860000 0.020000 0
0.880000 0.020000 0
0.900000 0.020000 0
0.920000 0.020000 0
0.940000 0.020000 0
0.960000 0.020000 0
0.980000 0.020000 0
1.000000 0.020000 0
0.000000 0.040000 0
0.020000 0.040000 0
0.040000 0.040000 0
0.060000 0.040000 0
0.080000 0.040000 0
0.100000 0.040000 0
0.120000 0.040000 0
0.140000 0.040000 0
0.160000 0.040000 0
0.180000 0.040000 0
0.200000 0.040000 0
0.220000 0.040000 0
0.240000 0.040000 0
0.260000 0.040000 0
0.280000 0.040000 0
0.300000 0.040000 0
0.320000 0.040000 0
0.340000 0.040000 0
0.360000 0.040000 0
0.380000 0.040000 0
0.400000 0.040000 0
0.420000 0.040000 0
0.440000 0.040000 0
0.460000 0.040000 0
0.480000 0.040000 0
0.500000 0.040000 0
0.520000 0.040000 0
0.540000 0.040000 0
0.560000 0.040000 0
0.580000 0.040000 0
0.600000 0.040000 0
0.620000 0.040000 0
0.640000 0.040000 0
0.660000 0.040000 0
0.680000 0.040000 0
0.700000 0.040000 0
0.720000 0.040000 0
0.740000 0.040000 0
0.760000 0.040000 0
0.780000 0.040000 0
0.800000 0.040000 0
0.820000 0.040000 0
0.840000 0.040000 0
0.860000 0.040000 0
0.880000 0.040000 0
0.900000 0.040000 0
0.920000 0.040000 0
0.940000 0.040000 0
0.960000 0.040000 0
0.980000 0.040000 0
1.000000 0.040000 0
0.000000 0.060000 0
0.020000 0.060000 0
0.040000 0.060000 0
0.060000 0.060000 0
0.080000 0.060000 0
0.100000 0.060000 0
0.120000 0.060000 0
0.140000 0.060000 0
0.160000 0.060000 0
0.180000 0.060000 0
0.200000 0.060000 0
0.220000 0.060000 0
0.240000 0.060000 0
0.260000 0.060000 0
0.280000 0.060000 0
0.300000 0.060000 0
0.320000 0.060000 0
0.340000 0.060000 0
0.360000 0.060000 0
0.380000 0.060000 0
0.400000 0.060000 0
0.420000 0.060000 0
0.440000 0.060000 0
0.460000 0.060000 0
0.480000 0.060000 0
0.500000 0.060000 0
0.520000 0.060000 0
0.540000 0.060000 0
0.560000 0.060000 0
0.580000 0.060000 0
0.600000 0.060000 0
0.620000 0.060000 0
0.640000 0.060000 0
0.660000 0.060000 0
0.680000 0.060000 0
0.700000 0.060000 0
0.720000 0.060000 0
0.740000 0.060000 0
0.760000 0.060000 0
0.780000 0.060000 0
0.800000 0.060000 0
0.820000 0.060000 0
0.840000 0.060000 0
0.860000 0.060000 0
0.880000 0.060000 0
0.900000 0.060000 0
0.920000 0.060000 0
0.940000 0.060000 0
0.960000 0.060000 0
0.980000 0.060000 0
1.000000 0.060000 0
0.000000 0.080000 0
0.020000 0.080000 0
0.040000 0.080000 0
0.060000 0.080000 0
0.080000 0.080000 0
0.100000 0.080000 0
0.120000 0.080000 0
0.140000 0.080000 0
0.160000 0.080000 0
0.180000 0.080000 0
0.200000 0.080000 0
0.220000 0.080000 0
0.240000 0.080000 0
0.260000 0.080000 0
0.280000 0.080000 0
0.300000 0.080000 0
0.320000 0.080000 0
0.340000 0.080000 0
0.360000 0.080000 0
0.380000 0.080000 0
0.400000 0.080000 0
0.420000 0.080000 0
0.440000 0.080000 0
0.460000 0.080000 0
0.480000 0.080000 0
0.500000 0.080000 0
0.520000 0.080000 0
0.540000 0.080000 0
0.560000 0.080000 0
0.580000 0.080000 0
0.600000 0.080000 0
0.620000 0.080000 0
0.640000 0.080000 0
0.660000 0.080000 0
0.680000 0.080000 0
0.700000 0.080000 0
0.720000 0.080000 0
0.740000 0.080000 0
0.760000 0.080000 0
0.780000 0.080000 0
0.800000 0.080000 0
0.820000 0.080000 0
0.840000 0.080000 0
0.860000 0.080000 0
0.880000 0.080000 0
0.900000 0.080000 0
0.920000 0.080000 0
0.940000 0.080000 0
0.960000 0.080000 0
0.980000 0.080000 0
1.000000 0.080000 0
0.000000 0.100000 0
0.020000 0.100000 0
0.040000 0.100000 0
0.060000 0.100000 0
0.080000 0.100000 0
0.100000 0.100000 0
0.120000 0.100000 0
0.140000 0.100000 0
0.160000 0.100000 0
0.180000 0.100000 0
0.200000 0.100000 0
0.220000 0.100000 0
0.240000 0.100000 0
0.260000 0.100000 0
0.280000 0.100000 0
0.300000 0.100000 0
0.320000 0.100000 0
0.340000 0.100000 0
0.360000 0.100000 0
0.380000 0.100000 0
0.400000 0.100000 0
0.420000 0.100000 0
0.440000 0.100000 0
0.460000 0.100000 0
0.480000 0.100000 0
0.500000 0.100000 0
0.520000 0.100000 0
0.540000 0.100000 0
0.560000 0.100000 0
0.580000 0.100000 0
0.600000 0.100000 0
0.620000 0.100000 0
0.640000 0.100000 0
0.660000 0.100000 0
0.680000 0.100000 0
0.700000 0.100000 0
0.720000 0.100000 0
0.740000 0.100000 0
0.760000 0.100000 0
0.780000 0.100000 0
0.800000 0.100000 0
0.820000 0.100000 0
0.840000 0.100000 0
0.860000 0.100000 0
0.880000 0.100000 0
0.900000 0.100000 0
0.920000 0.100000 0
0.940000 0.100000 0
0.960000 0.100000 0
0.980000 0.100000 0
1.000000 0.100000 0
0.000000 0.120000 0
0.020000 0.120000 0
0.040000 0.120000 0
0.060000 0.120000 0
0.080000 0.120000 0
0.100000 0.120000 0
0.120000 0.120000 0
0.140000 0.120000 0
0.160000 0.120000 0
0.180000 0.120000 0
0.200000 0.120000 0
0.220000 0.120000 0
0.240000 0.120000 0
0.260000 0.120000 0
0.280000 0.120000 0
0.300000 0.120000 0
0.320000 0.120000 0
0.340000 0.120000 0
0.360000 0.120000 0
0.380000 0.120000 0
0.400000 0.120000 0
0.420000 0.120000 0
0.440000 0.120000 0
0.460000 0.120000 0
0.480000 0.120000 0
0.500000 0.120000 0
0.520000 0.120000 0
0.540000 0.120000 0
0.560000 0.120000 0
0.580000 0.120000 0
0.600000 0.120000 0
0.620000 0.120000 0
0.640000 0.120000 0
0.660000 0.120000 0
0.680000 0.120000 0
0.700000 0.120000 0
0.720000 0.120000 0
0.740000 0.120000 0
0.760000 0.120000 0
0.780000 0.120000 0
0.800000 0.120000 0
0.820000 0.120000 0
0.840000 0.120000 0
0.860000 0.120000 0
0.880000 0.120000 0
0.900000 0.120000 0
0.920000 0.120000 0
0.940000 0.120000 0
0.960000 0.120000 0
0.980000 0.120000 0
1.000000 0.120000 0
0.000000 0.140000 0
0.020000 0.140000 0
0.040000 0.140000 0
0.060000 0.140000 0
0.080000 0.140000 0
0.100000 0.140000 0
0.120000 0.140000 0
0.140000 0.140000 0
0.160000 0.140000 0
0.180000 0.140000 0
0.200000 0.140000 0
0.220000 0.140000 0
0.240000 0.140000 0
0.260000 0.140000 0
0.280000 0.140000 0
0.300000 0.140000 0
0.320000 0.140000 0
0.340000 0.140000 0
0.360000 0.140000 0
0.380000 0.140000 0
0.400000 0.140000 0
0.420000 0.140000 0
0.440000 0.140000 0
0.460000 0.140000 0
0.480000 0.140000 0
0.500000 0.140000 0
0.520000 0.140000 0
0.540000 0.140000 0
0.560000 0.140000 0
0.580000 0.140000 0
0.600000 0.140000 0
0.620000 0.140000 0
0.640000 0.140000 0
0.660000 0.140000 0
0.680000 0.140000 0
0.700000 0.140000 0
0.720000 0.140000 0
0.740000 0.140000 0
0.760000 0.140000 0
0.780000 0.140000 0
0.800000 0.140000 0
0.820000 0.140000 0
0.840000 0.140000 0
0.860000 0.140000 0
0.880000 0.140000 0
0.900000 0.140000 0
0.920000 0.140000 0
0.940000 0.140000 0
0.960000 0.140000 0
0.980000 0.140000 0
1.000000 0.140000 0
0.000000 0.160000 0
0.020000 0.160000 0
0.040000 0.160000 0
0.060000 0.160000 0
0.080000 0.160000 0
0.100000 0.160000 0
0.120000 0.160000 0
0.140000 0.160000 0
0.160000 0.160000 0
0.180000 0.160000 0
0.200000 0.160000 0
0.220000 0.160000 0
0.240000 0.160000 0
0.260000 0.160000 0
0.280000 0.160000 0
0.300000 0.160000 0
0.320000 0.160000 0
0.340000 0.160000 0
0.360000 0.160000 0
0.380000 0.160000 0
0.400000 0.160000 0
0.420000 0.160000 0
0.440000 0.160000 0
0.460000 0.160000 0
0.480000 0.160000 0
0.500000 0.160000 0
0.520000 0.160000 0
0.540000 0.160000 0
0.560000 0.160000 0
0.580000 0.160000 0
0.600000 0.160000 0
0.620000 0.160000 0
0.640000 0.160000 0
0.660000 0.160000 0
0.680000 0.160000 0
0.700000 0.160000 0
0.720000 0.160000 0
0.740000 0.160000 0
0.760000 0.160000 0
0.780000 0.160000 0
0.800000 0.160000 0
0.820000 0.160000 0
0.840000 0.160000 0
0.860000 0.160000 0
0.880000 0.160000 0
0.900000 0.160000 0
0.920000 0.160000 0
0.940000 0.160000 0
0.960000 0.160000 0
0.980000 0.160000 0
1.000000 0.160000 0
0.000000 0.180000 0
0.020000 0.180000 0
0.040000 0.180000 0
0.060000 0.180000 0
0.080000 0.180000 0
0.100000 0.180000 0
0.120000 0.180000 0
0.140000 0.180000 0
0.160000 0.180000 0
0.180000 0.180000 0
0.200000 0.180000 0
0.220000 0.180000 0
0.240000 0.180000 0
0.260000 0.180000 0
0.280000 0.180000 0
0.300000 0.180000 0
0.320000 0.180000 0
0.340000 0.180000 0
0.360000 0.180000 0
0.380000 0.180000 0
0.400000 0.180000 0
0.420000 0.180000 0
0.440000 0.180000 0
0.460000 0.180000 0
0.480000 0.180000 0
0.500000 0.180000 0
0.520000 0.180000 0
0.540000 0.180000 0
0.560000 0.180000 0
0.580000 0.180000 0
0.600000 0.180000 0
0.620000 0.180000 0
[...]
POINT_DATA 2601 

VECTORS velocity float
0.000000 0.000000 0
-0.000000 0.000000 0
-0.000000 0.000000 0
-0.000000 0.000000 0
-0.000000 0.000000 0
-0.000000 0.000000 0
-0.000000 0.000000 0
-0.000000 0.000000 0
-0.000000 0.000000 0
-0.000000 0.000000 0
-0.000000 0.000000 0
-0.000000 0.000000 0
-0.000000 0.000000 0
-0.000000 0.000000 0
-0.000000 0.000000 0
-0.000000 0.000000 0
-0.000000 0.000000 0
-0.000000 0.000000 0
-0.000000 0.000000 0
-0.000000 0.000000 0
-0.000000 0.000000 0
-0.000000 0.000000 0
-0.000000 0.000000 0
-0.000000 0.000000 0
-0.000000 0.000000 0
-0.000000 0.000000 0
-0.000000 0.000000 0
-0.000000 0.000000 0
-0.000000 0.000000 0
-0.000000 0.000000 0
-0.000000 0.000000 0
-0.000000 0.000000 0
-0.000000 0.000000 0
-0.000000 0.000000 0
-0.000000 0.000000 0
-0.000000 0.000000 0
-0.000000 0.000000 0
-0.000000 0.000000 0
-0.000000 0.000000 0
-0.000000 0.000000 0
-0.000000 0.000000 0
-0.000000 0.000000 0
-0.000000 0.000000 0
-0.000000 0.000000 0
-0.000000 0.000000 0
-0.000000 0.000000 0
-0.000000 0.000000 0
-0.000000 0.000000 0
-0.000000 0.000000 0
-0.000000 0.000000 0
0.000000 0.000000 0
0.000000 0.000000 0
0.000020 0.000002 0
0.000040 0.000003 0
0.000061 0.000003 0
0.000082 0.000002 0
0.000105 -0.000002 0
0.000129 -0.000009 0
0.000155 -0.000019 0
0.000183 -0.000033 0
0.000213 -0.000051 0
0.000246 -0.000074 0
0.000281 -0.000103 0
0.000320 -0.000137 0
0.000363 -0.000179 0
0.000409 -0.000227 0
0.000460 -0.000284 0
0.000515 -0.000349 0
0.000576 -0.000423 0
0.000641 -0.000508 0
0.000713 -0.000605 0
0.000792 -0.000714 0
0.000878 -0.000836 0
0.000971 -0.000973 0
0.001073 -0.001127 0
0.001183 -0.001298 0
0.001303 -0.001488 0
0.001433 -0.001698 0
0.001574 -0.001929 0
0.001725 -0.002183 0
0.001887 -0.002459 0
0.002060 -0.002757 0
0.002242 -0.003076 0
0.002433 -0.003413 0
0.002628 -0.003764 0
0.002826 -0.004123 0
0.003021 -0.004479 0
0.003205 -0.004821 0
0.003371 -0.005132 0
0.003508 -0.005394 0
0.003604 -0.005584 0
0.003646 -0.005680 0
0.003622 -0.005658 0
0.003520 -0.005497 0
0.003332 -0.005184 0
0.003056 -0.004714 0
0.002692 -0.004090 0
0.002249 -0.003330 0
0.001741 -0.002457 0
0.001185 -0.001505 0
0.000599 -0.000507 0
0.000000 0.000000 0
0.000000 0.000000 0
0.000039 0.000004 0
0.000079 0.000007 0
0.000120 0.000008 0
0.000163 0.000006 0
0.000208 -0.000002 0
0.000256 -0.000014 0
0.000307 -0.000034 0
0.000363 -0.000061 0
0.000423 -0.000097 0
0.000488 -0.000143 0
0.000559 -0.000199 0
0.000637 -0.000268 0
0.000721 -0.000350 0
0.000814 -0.000446 0
0.000914 -0.000558 0
0.001024 -0.000687 0
0.001145 -0.000836 0
0.001276 -0.001004 0
0.001419 -0.001196 0
0.001575 -0.001412 0
0.001745 -0.001655 0
0.001930 -0.001927 0
0.002131 -0.002231 0
0.002350 -0.002570 0
0.002588 -0.002946 0
0.002846 -0.003363 0
0.003124 -0.003821 0
0.003424 -0.004323 0
0.003745 -0.004870 0
0.004087 -0.005461 0
0.004448 -0.006094 0
0.004825 -0.006764 0
0.005214 -0.007462 0
0.005607 -0.008176 0
0.005995 -0.008887 0
0.006363 -0.009573 0
0.006697 -0.010200 0
0.006975 -0.010732 0
0.007173 -0.011126 0
0.007266 -0.011334 0
0.007229 -0.011308 0
0.007036 -0.011007 0
0.006672 -0.010400 0
0.006128 -0.009473 0
0.005407 -0.008234 0
0.004523 -0.006713 0
0.003506 -0.004960 0
0.002388 -0.003041 0
0.001208 -0.001024 0
0.000000 0.000000 0
0.000000 0.000000 0
0.000058 0.000008 0
0.000117 0.000014 0
0.000178 0.000016 0
0.000242 0.000014 0
0.000309 0.000005 0
0.000380 -0.000013 0
0.000456 -0.000041 0
0.000539 -0.000080 0
0.000628 -0.000133 0
0.000725 -0.000200 0
0.000831 -0.000284 0
0.000946 -0.000385 0
0.001072 -0.000506 0
0.001209 -0.000649 0
0.001359 -0.000815 0
0.001523 -0.001007 0
0.001701 -0.001226 0
0.001896 -0.001476 0
0.002108 -0.001760 0
0.002340 -0.002080 0
0.002592 -0.002440 0
0.002866 -0.002843 0
0.003165 -0.003293 0
0.003489 -0.003794 0
0.003841 -0.004351 0
0.004221 -0.004966 0
0.004633 -0.005644 0
0.005075 -0.006387 0
0.005550 -0.007196 0
0.006055 -0.008071 0
0.006589 -0.009009 0
0.007147 -0.010003 0
0.007724 -0.011042 0
0.008308 -0.012108 0
0.008887 -0.013174 0
0.009441 -0.014207 0
0.009946 -0.015161 0
0.010373 -0.015981 0
0.010685 -0.016602 0
0.010846 -0.016952 0
0.010814 -0.016958 0
0.010552 -0.016553 0
0.010032 -0.015685 0
0.009236 -0.014326 0
0.008168 -0.012483 0
0.006848 -0.010199 0
0.005316 -0.007550 0
0.003626 -0.004635 0
0.001836 -0.001562 0
0.000000 0.000000 0
0.000000 0.000000 0
0.000076 0.000013 0
0.000154 0.000024 0
0.000234 0.000030 0
0.000317 0.000029 0
0.000405 0.000019 0
0.000499 -0.000002 0
0.000599 -0.000037 0
0.000708 -0.000087 0
0.000825 -0.000154 0
0.000953 -0.000242 0
0.001093 -0.000350 0
0.001245 -0.000483 0
0.001411 -0.000642 0
0.001592 -0.000829 0
0.001790 -0.001046 0
0.002005 -0.001298 0
0.002240 -0.001586 0
0.002497 -0.001914 0
0.002776 -0.002286 0
0.003080 -0.002705 0
0.003411 -0.003177 0
0.003771 -0.003705 0
0.004163 -0.004294 0
0.004587 -0.004951 0
0.005048 -0.005679 0
0.005546 -0.006485 0
0.006084 -0.007372 0
0.006662 -0.008344 0
0.007283 -0.009404 0
0.007943 -0.010552 0
0.008642 -0.011784 0
0.009375 -0.013093 0
0.010132 -0.014465 0
0.010904 -0.015877 0
0.011671 -0.017299 0
0.012411 -0.018686 0
0.013093 -0.019981 0
0.013679 -0.021112 0
0.014122 -0.021994 0
0.014371 -0.022528 0
0.014370 -0.022614 0
0.014067 -0.022153 0
0.013418 -0.021068 0
0.012394 -0.019312 0
0.010994 -0.016883 0
0.009242 -0.013834 0
0.007190 -0.010264 0
0.004912 -0.006311 0
0.002489 -0.002129 0
0.000000 0.000000 0
0.000000 0.000000 0
0.000093 0.000021 0
0.000188 0.000038 0
0.000286 0.000050 0
0.000388 0.000053 0
0.000496 0.000045 0
0.000611 0.000022 0
0.000734 -0.000017 0
0.000868 -0.000076 0
0.001013 -0.000157 0
0.001170 -0.000262 0
0.001342 -0.000394 0
0.001530 -0.000555 0
0.001735 -0.000749 0
0.001958 -0.000978 0
0.002202 -0.001244 0
0.002468 -0.001552 0
0.002757 -0.001905 0
0.003073 -0.002307 0
0.003416 -0.002763 0
0.003790 -0.003276 0
0.004196 -0.003853 0
0.004638 -0.004499 0
0.005117 -0.005221 0
0.005637 -0.006023 0
0.006200 -0.006914 0
0.006809 -0.007898 0
0.007466 -0.008983 0
0.008172 -0.010173 0
0.008929 -0.011471 0
0.009737 -0.012878 0
0.010592 -0.014392 0
0.011489 -0.016004 0
0.012421 -0.017699 0
0.013373 -0.019454 0
0.014326 -0.021232 0
0.015253 -0.022981 0
0.016118 -0.024635 0
0.016875 -0.026106 0
0.017467 -0.027287 0
0.017829 -0.028055 0
0.017891 -0.028278 0
0.017580 -0.027823 0
0.016834 -0.026578 0
0.015612 -0.024468 0
0.013899 -0.021476 0
0.011721 -0.017657 0
0.009143 -0.013137 0
0.006257 -0.008094 0
0.003174 -0.002733 0
0.000000 0.000000 0
0.000000 0.000000 0
0.000109 0.000031 0
0.000220 0.000059 0
0.000334 0.000079 0
0.000453 0.000089 0
0.000580 0.000085 0
0.000714 0.000064 0
0.000860 0.000022 0
0.001017 -0.000043 0
0.001188 -0.000134 0
0.001374 -0.000255 0
0.001577 -0.000408 0
0.001799 -0.000596 0
0.002040 -0.000822 0
0.002304 -0.001090 0
0.002592 -0.001402 0
0.002906 -0.001763 0
0.003248 -0.002177 0
0.003620 -0.002648 0
0.004025 -0.003182 0
0.004464 -0.003783 0
0.004942 -0.004459 0
0.005460 -0.005216 0
0.006022 -0.006059 0
0.006631 -0.006998 0
0.007290 -0.008040 0
0.008002 -0.009192 0
0.008770 -0.010462 0
0.009596 -0.011855 0
0.010481 -0.013377 0
0.011425 -0.015029 0
0.012427 -0.016811 0
0.013481 -0.018715 0
0.014578 -0.020725 0
0.015705 -0.022817 0
0.016840 -0.024952 0
0.017954 -0.027074 0
0.019008 -0.029105 0
0.019947 -0.030947 0
0.020708 -0.032472 0
0.021211 -0.033531 0
0.021368 -0.033957 0
0.021088 -0.033579 0
0.020285 -0.032240 0
0.018896 -0.029828 0
0.016895 -0.026301 0
0.014301 -0.021712 0
0.011189 -0.016205 0
0.007675 -0.010006 0
0.003898 -0.003383 0
0.000000 0.000000 0
0.000000 0.000000 0
0.000123 0.000045 0
0.000248 0.000087 0
0.000377 0.000119 0
0.000512 0.000139 0
0.000655 0.000143 0
0.000808 0.000126 0
0.000974 0.000085 0
0.001153 0.000016 0
0.001349 -0.000083 0
0.001562 -0.000217 0
0.001794 -0.000388 0
0.002048 -0.000599 0
0.002326 -0.000855 0
0.002628 -0.001158 0
0.002958 -0.001513 0
0.003318 -0.001923 0
0.003710 -0.002393 0
0.004135 -0.002929 0
0.004598 -0.003535 0
0.005100 -0.004218 0
0.005645 -0.004986 0
0.006235 -0.005844 0
0.006875 -0.006802 0
0.007567 -0.007867 0
0.008315 -0.009048 0
0.009123 -0.010355 0
0.009993 -0.011796 0
0.010929 -0.013379 0
0.011933 -0.015111 0
0.013004 -0.016995 0
0.014142 -0.019031 0
0.015343 -0.021214 0
0.016597 -0.023530 0
0.017892 -0.025955 0
0.019206 -0.028449 0
0.020507 -0.030952 0
0.021754 -0.033382 0
0.022889 -0.035627 0
0.023837 -0.037543 0
0.024508 -0.038955 0
0.024796 -0.039657 0
0.024587 -0.039434 0
0.023770 -0.038077 0
0.022254 -0.035425 0
0.019992 -0.031400 0
0.016994 -0.026037 0
0.013342 -0.019503 0
0.009174 -0.012074 0
0.004667 -0.004088 0
0.000000 0.000000 0
0.000000 0.000000 0
0.000135 0.000064 0
0.000272 0.000123 0
0.000414 0.000172 0
0.000563 0.000206 0
0.000721 0.000221 0
0.000891 0.000211 0
0.001075 0.000174 0
0.001275 0.000106 0
0.001493 0.000001 0
0.001731 -0.000142 0
0.001992 -0.000328 0
0.002276 -0.000560 0
0.002588 -0.000842 0
0.002927 -0.001177 0
0.003297 -0.001570 0
0.003701 -0.002025 0
0.004139 -0.002548 0
0.004616 -0.003142 0
0.005133 -0.003816 0
0.005694 -0.004574 0
0.006302 -0.005426 0
0.006960 -0.006378 0
0.007671 -0.007440 0
0.008441 -0.008621 0
0.009271 -0.009931 0
0.010168 -0.011381 0
0.011133 -0.012980 0
0.012171 -0.014739 0
0.013284 -0.016666 0
0.014473 -0.018767 0
0.015738 -0.021044 0
0.017076 -0.023496 0
0.018479 -0.026109 0
0.019935 -0.028862 0
0.021423 -0.031716 0
0.022911 -0.034612 0
0.024355 -0.037461 0
0.025695 -0.040145 0
0.026850 -0.042501 0
0.027716 -0.044329 0
0.028171 -0.045386 0
0.028076 -0.045404 0
0.027289 -0.044115 0
0.025689 -0.041295 0
0.023199 -0.036813 0
0.019813 -0.030679 0
0.015614 -0.023073 0
0.010766 -0.014324 0
0.005486 -0.004857 0
0.000000 0.000000 0
0.000000 0.000000 0
0.000144 0.000088 0
0.000291 0.000169 0
0.000444 0.000239 0
0.000604 0.000292 0
0.000776 0.000322 0
0.000960 0.000325 0
0.001161 0.000296 0
0.001379 0.000231 0
0.001619 0.000125 0
0.001880 -0.000025 0
0.002167 -0.000223 0
0.002481 -0.000473 0
0.002824 -0.000777 0
0.003199 -0.001142 0
0.003607 -0.001570 0
0.004052 -0.002066 0
0.004536 -0.002635 0
0.005060 -0.003284 0
0.005629 -0.004019 0
0.006246 -0.004846 0
0.006912 -0.005774 0
0.007633 -0.006812 0
0.008413 -0.007969 0
0.009254 -0.009256 0
0.010161 -0.010683 0
0.011139 -0.012264 0
0.012191 -0.014009 0
0.013323 -0.015931 0
0.014536 -0.018039 0
0.015834 -0.020344 0
0.017217 -0.022850 0
0.018684 -0.025559 0
0.020228 -0.028461 0
0.021837 -0.031539 0
0.023494 -0.034756 0
0.025167 -0.038054 0
0.026813 -0.041344 0
0.028367 -0.044500 0
0.029745 -0.047348 0
0.030832 -0.049659 0
0.031489 -0.051152 0
0.031550 -0.051505 0
0.030843 -0.050380 0
0.029205 -0.047473 0
0.026523 -0.042584 0
0.022767 -0.035683 0
0.018017 -0.026955 0
0.012460 -0.016787 0
0.006361 -0.005701 0
0.000000 0.000000 0
0.000000 0.000000 0
0.000151 0.000117 0
0.000306 0.000227 0
0.000466 0.000324 0
0.000636 0.000401 0
0.000818 0.000452 0
0.001015 0.000471 0
0.001230 0.000454 0
0.001465 0.000396 0
0.001724 0.000292 0
0.002007 0.000139 0
0.002318 -0.000068 0
0.002660 -0.000331 0
0.003033 -0.000656 0
0.003441 -0.001046 0
0.003886 -0.001505 0
0.004371 -0.002039 0
0.004897 -0.002651 0
0.005468 -0.003349 0
0.006086 -0.004139 0
0.006754 -0.005029 0
0.007477 -0.006027 0
0.008257 -0.007143 0
0.009099 -0.008386 0
0.010007 -0.009769 0
0.010985 -0.011304 0
0.012039 -0.013004 0
0.013172 -0.014883 0
0.014389 -0.016954 0
0.015696 -0.019232 0
0.017094 -0.021728 0
0.018587 -0.024451 0
0.020173 -0.027406 0
0.021850 -0.030591 0
0.023607 -0.033990 0
0.025427 -0.037572 0
0.027284 -0.041283 0
0.029132 -0.045036 0
0.030908 -0.048699 0
0.032524 -0.052088 0
0.033855 -0.054951 0
0.034747 -0.056968 0
0.035008 -0.057756 0
0.034429 -0.056896 0
0.032803 -0.053994 0
0.029971 -0.048759 0
0.025868 -0.041101 0
0.020564 -0.031196 0
0.014269 -0.019494 0
0.007298 -0.006633 0
0.000000 0.000000 0
0.000000 0.000000 0
0.000155 0.000154 0
0.000314 0.000299 0
0.000480 0.000429 0
0.000656 0.000536 0
0.000846 0.000613 0
0.001053 0.000655 0
0.001280 0.000654 0
0.001530 0.000607 0
0.001806 0.000509 0
0.002109 0.000356 0
0.002444 0.000144 0
0.002811 -0.000131 0
0.003213 -0.000473 0
0.003653 -0.000885 0
0.004133 -0.001373 0
0.004656 -0.001939 0
0.005223 -0.002591 0
0.005837 -0.003334 0
0.006502 -0.004175 0
0.007221 -0.005121 0
0.007997 -0.006182 0
0.008833 -0.007368 0
0.009734 -0.008690 0
0.010704 -0.010160 0
0.011749 -0.011792 0
0.012872 -0.013600 0
0.014080 -0.015602 0
0.015377 -0.017811 0
0.016770 -0.020246 0
0.018261 -0.022922 0
0.019856 -0.025851 0
0.021555 -0.029044 0
0.023356 -0.032503 0
0.025254 -0.036220 0
0.027233 -0.040171 0
0.029269 -0.044306 0
0.031320 -0.048541 0
0.033325 -0.052746 0
0.035190 -0.056727 0
0.036787 -0.060213 0
0.037945 -0.062843 0
0.038448 -0.064172 0
0.038047 -0.063692 0
0.036485 -0.060899 0
0.033548 -0.055389 0
0.029125 -0.046986 0
0.023265 -0.035848 0
0.016200 -0.022483 0
0.008304 -0.007665 0
0.000000 0.000000 0
0.000000 0.000000 0
0.000156 0.000198 0
0.000316 0.000387 0
0.000483 0.000558 0
0.000663 0.000702 0
0.000858 0.000811 0
0.001073 0.000880 0
0.001310 0.000902 0
0.001572 0.000870 0
0.001863 0.000782 0
0.002185 0.000632 0
0.002540 0.000417 0
0.002932 0.000134 0
0.003362 -0.000222 0
0.003833 -0.000654 0
0.004347 -0.001167 0
0.004906 -0.001764 0
0.005513 -0.002451 0
0.006170 -0.003234 0
0.006880 -0.004121 0
0.007647 -0.005119 0
0.008473 -0.006237 0
0.009363 -0.007486 0
0.010320 -0.008879 0
0.011349 -0.010428 0
0.012456 -0.012148 0
0.013645 -0.014055 0
0.014923 -0.016169 0
0.016294 -0.018506 0
0.017766 -0.021087 0
0.019345 -0.023931 0
0.021034 -0.027056 0
0.022839 -0.030478 0
0.024759 -0.034206 0
0.026790 -0.038239 0
0.028923 -0.042560 0
0.031135 -0.047129 0
0.033389 -0.051868 0
0.035624 -0.056649 0
0.037749 -0.061273 0
0.039629 -0.065452 0
0.041082 -0.068788 0
0.041866 -0.070771 0
0.041693 -0.070794 0
0.040249 -0.068225 0
0.037256 -0.062522 0
0.032543 -0.053398 0
0.026130 -0.040965 0
0.018265 -0.025794 0
0.009383 -0.008812 0
0.000000 0.000000 0
0.000000 0.000000 0
0.000152 0.000252 0
0.000310 0.000493 0
0.000476 0.000713 0
0.000655 0.000902 0
0.000853 0.001052 0
0.001071 0.001154 0
0.001315 0.001203 0
0.001588 0.001192 0
0.001892 0.001117 0
0.002231 0.000974 0
0.002606 0.000759 0
0.003022 0.000470 0
0.003478 0.000102 0
0.003979 -0.000348 0
0.004526 -0.000883 0
0.005121 -0.001508 0
0.005767 -0.002228 0
0.006465 -0.003048 0
0.007220 -0.003976 0
0.008033 -0.005021 0
0.008909 -0.006191 0
0.009850 -0.007498 0
0.010862 -0.008954 0
0.011948 -0.010574 0
0.013113 -0.012374 0
0.014365 -0.014372 0
0.015708 -0.016587 0
0.017150 -0.019042 0
0.018697 -0.021759 0
0.020356 -0.024762 0
0.022135 -0.028074 0
0.024039 -0.031717 0
0.026071 -0.035707 0
0.028231 -0.040053 0
0.030511 -0.044747 0
0.032895 -0.049760 0
0.035348 -0.055022 0
0.037816 -0.060412 0
0.040207 -0.065731 0
0.042387 -0.070675 0
0.044159 -0.074813 0
0.045261 -0.077567 0
0.045362 -0.078225 0
0.044091 -0.076010 0
0.041094 -0.070212 0
0.036127 -0.060396 0
0.029167 -0.046607 0
0.020470 -0.029471 0
0.010542 -0.010090 0
0.000000 0.000000 0
0.000000 0.000000 0
0.000145 0.000317 0
0.000295 0.000622 0
0.000455 0.000901 0
0.000630 0.001144 0
0.000826 0.001341 0
0.001046 0.001484 0
0.001295 0.001565 0
0.001575 0.001580 0
0.001891 0.001522 0
0.002245 0.001389 0
0.002639 0.001177 0
0.003077 0.000883 0
0.003560 0.000505 0
0.004090 0.000039 0
0.004669 -0.000517 0
0.005300 -0.001167 0
0.005985 -0.001917 0
0.006725 -0.002772 0
0.007524 -0.003739 0
0.008383 -0.004826 0
0.009307 -0.006043 0
0.010300 -0.007402 0
0.011364 -0.008916 0
0.012505 -0.010600 0
0.013728 -0.012472 0
0.015039 -0.014552 0
0.016445 -0.016861 0
0.017953 -0.019424 0
0.019571 -0.022267 0
0.021308 -0.025419 0
0.023171 -0.028909 0
0.025169 -0.032765 0
0.027307 -0.037013 0
0.029589 -0.041669 0
0.032011 -0.046739 0
0.034562 -0.052204 0
0.037212 -0.058009 0
0.039912 -0.064040 0
0.042574 -0.070103 0
0.045062 -0.075886 0
0.047174 -0.080924 0
0.048627 -0.084573 0
0.049049 -0.086010 0
0.048005 -0.084291 0
0.045058 -0.078509 0
0.039877 -0.068043 0
0.032379 -0.052836 0
0.022822 -0.033559 0
0.011783 -0.011518 0
0.000000 0.000000 0
0.000000 0.000000 0
0.000132 0.000395 0
0.000269 0.000776 0
0.000419 0.001126 0
0.000586 0.001434 0
0.000776 0.001688 0
0.000994 0.001879 0
0.001244 0.001999 0
0.001530 0.002043 0
0.001855 0.002006 0
0.002223 0.001885 0
0.002635 0.001677 0
0.003095 0.001381 0
0.003604 0.000994 0
0.004164 0.000514 0
0.004776 -0.000062 0
0.005444 -0.000737 0
0.006167 -0.001516 0
0.006950 -0.002403 0
0.007793 -0.003406 0
0.008699 -0.004533 0
0.009672 -0.005793 0
0.010715 -0.007200 0
0.011832 -0.008766 0
0.013027 -0.010508 0
0.014307 -0.012446 0
0.015676 -0.014599 0
0.017144 -0.016994 0
0.018716 -0.019656 0
0.020403 -0.022617 0
0.022213 -0.025910 0
0.024156 -0.029569 0
0.026243 -0.033631 0
0.028483 -0.038129 0
0.030881 -0.043093 0
0.033440 -0.048541 0
0.036151 -0.054467 0
0.038994 -0.060831 0
0.041923 -0.067536 0
0.044857 -0.074393 0
0.047662 -0.081086 0
0.050130 -0.087125 0
0.051960 -0.091799 0
0.052743 -0.094166 0
0.051980 -0.093101 0
0.049138 -0.087465 0
0.043788 -0.076403 0
0.035767 -0.059716 0
0.025323 -0.038109 0
0.013109 -0.013112 0
0.000000 0.000000 0
0.000000 0.000000 0
0.000113 0.000489 0
0.000232 0.000960 0
0.000366 0.001395 0
0.000520 0.001780 0
0.000700 0.002101 0
0.000912 0.002348 0
0.001160 0.002513 0
0.001449 0.002592 0
0.001782 0.002579 0
0.002162 0.002473 0
0.002592 0.002271 0
0.003073 0.001972 0
0.003608 0.001576 0
0.004199 0.001081 0
0.004845 0.000485 0
0.005550 -0.000214 0
0.006315 -0.001021 0
0.007141 -0.001939 0
0.008030 -0.002976 0
0.008984 -0.004140 0
0.010007 -0.005441 0
0.011102 -0.006891 0
0.012272 -0.008505 0
0.013523 -0.010300 0
0.014858 -0.012297 0
0.016287 -0.014518 0
0.017814 -0.016990 0
0.019449 -0.019744 0
0.021202 -0.022814 0
0.023084 -0.026239 0
0.025105 -0.030059 0
0.027277 -0.034318 0
0.029614 -0.039062 0
0.032123 -0.044330 0
0.034812 -0.050155 0
0.037679 -0.056549 0
0.040709 -0.063491 0
0.043862 -0.070898 0
0.047066 -0.078598 0
0.050190 -0.086275 0
0.053025 -0.093417 0
0.055255 -0.099250 0
0.056436 -0.102710 0
0.056001 -0.102472 0
0.053321 -0.097126 0
0.047847 -0.085537 0
0.039322 -0.067312 0
0.027970 -0.043170 0
0.014521 -0.014892 0
0.000000 0.000000 0
0.000000 0.000000 0
0.000087 0.000602 0
0.000182 0.001181 0
0.000293 0.001718 0
0.000428 0.002193 0
0.000593 0.002592 0
0.000794 0.002905 0
0.001038 0.003122 0
0.001327 0.003240 0
0.001666 0.003254 0
0.002057 0.003163 0
0.002504 0.002967 0
0.003008 0.002666 0
0.003570 0.002260 0
0.004192 0.001749 0
0.004875 0.001132 0
0.005620 0.000408 0
0.006427 -0.000427 0
0.007299 -0.001377 0
0.008237 -0.002448 0
0.009242 -0.003647 0
0.010317 -0.004986 0
0.011466 -0.006477 0
0.012691 -0.008135 0
0.013998 -0.009978 0
0.015392 -0.012028 0
0.016879 -0.014310 0
0.018467 -0.016853 0
0.020166 -0.019691 0
0.021985 -0.022862 0
0.023936 -0.026410 0
0.026032 -0.030382 0
0.028287 -0.034832 0
0.030716 -0.039814 0
0.033332 -0.045382 0
0.036146 -0.051584 0
0.039162 -0.058453 0
0.042371 -0.065986 0
0.045743 -0.074125 0
0.049212 -0.082714 0
0.052654 -0.091447 0
0.055862 -0.099796 0
0.058507 -0.106929 0
0.060115 -0.111653 0
0.060052 -0.112427 0
0.057585 -0.107536 0
0.052037 -0.095504 0
0.043032 -0.075689 0
0.030755 -0.048792 0
0.016014 -0.016879 0
0.000000 0.000000 0
0.000000 0.000000 0
0.000053 0.000738 0
0.000115 0.001447 0
0.000196 0.002104 0
0.000305 0.002686 0
0.000450 0.003177 0
0.000636 0.003564 0
0.000871 0.003841 0
0.001157 0.004002 0
0.001501 0.004044 0
0.001903 0.003970 0
0.002367 0.003779 0
0.002894 0.003473 0
0.003485 0.003054 0
0.004142 0.002525 0
0.004863 0.001885 0
0.005651 0.001133 0
0.006505 0.000268 0
0.007426 -0.000714 0
0.008416 -0.001818 0
0.009475 -0.003053 0
0.010606 -0.004429 0
0.011812 -0.005958 0
0.013096 -0.007656 0
0.014463 -0.009543 0
0.015917 -0.011642 0
0.017465 -0.013979 0
0.019116 -0.016586 0
0.020878 -0.019501 0
0.022763 -0.022765 0
0.024783 -0.026427 0
0.026953 -0.030543 0
0.029289 -0.035175 0
0.031808 -0.040387 0
0.034526 -0.046250 0
0.037460 -0.052828 0
0.040618 -0.060175 0
0.043999 -0.068312 0
0.047581 -0.077209 0
0.051307 -0.086734 0
0.055062 -0.096595 0
0.058641 -0.106255 0