# vtk DataFile Version 2.0
generated by CFD-lab course output (written by Tobias Neckel) 
ASCII

DATASET STRUCTURED_GRID
DIMENSIONS  51 51 1 
POINTS 2601 float

0.000000 0.000000 0
0.020000 0.000000 0
0.040000 0.000000 0
0.060000 0.000000 0
0.080000 0.000000 0
0.100000 0.000000 0
0.120000 0.000000 0
0.140000 0.000000 0
0.160000 0.000000 0
0.180000 0.000000 0
0.200000 0.000000 0
0.220000 0.000000 0
0.240000 0.000000 0
0.260000 0.000000 0
0.280000 0.000000 0
0.300000 0.000000 0
0.320000 0.000000 0
0.340000 0.000000 0
0.360000 0.000000 0
0.380000 0.000000 0
0.400000 0.000000 0
0.420000 0.000000 0
0.440000 0.000000 0
0.460000 0.000000 0
0.480000 0.000000 0
0.500000 0.000000 0
0.520000 0.000000 0
0.540000 0.000000 0
0.560000 0.000000 0
0.580000 0.000000 0
0.600000 0.000000 0
0.620000 0.000000 0
0.640000 0.000000 0
0.660000 0.000000 0
0.680000 0.000000 0
0.700000 0.000000 0
0.720000 0.000000 0
0.740000 0.000000 0
0.760000 0.000000 0
0.780000 0.000000 0
0.800000 0.000000 0
0.820000 0.000000 0
0.840000 0.000000 0
0.860000 0.000000 0
0.880000 0.000000 0
0.900000 0.000000 0
0.920000 0.000000 0
0.940000 0.000000 0
0.960000 0.000000 0
0.980000 0.000000 0
1.000000 0.000000 0
0.000000 0.020000 0
0.020000 0.020000 0
0.040000 0.020000 0
0.060000 0.020000 0
0.080000 0.020000 0
0.100000 0.020000 0
0.120000 0.020000 0
0.140000 0.020000 0
0.160000 0.020000 0
0.180000 0.020000 0
0.200000 0.020000 0
0.220000 0.020000 0
0.240000 0.020000 0
0.260000 0.020000 0
0.280000 0.020000 0
0.300000 0.020000 0
0.320000 0.020000 0
0.340000 0.020000 0
0.360000 0.020000 0
0.380000 0.020000 0
0.400000 0.020000 0
0.420000 0.020000 0
0.440000 0.020000 0
0.460000 0.020000 0
0.480000 0.020000 0
0.500000 0.020000 0
0.520000 0.020000 0
0.540000 0.020000 0
0.560000 0.020000 0
0.580000 0.020000 0
0.600000 0.020000 0
0.620000 0.020000 0
0.640000 0.020000 0
0.660000 0.020000 0
0.680000 0.020000 0
0.700000 0.020000 0
0.720000 0.020000 0
0.740000 0.020000 0
0.760000 0.020000 0
0.780000 0.020000 0
0.800000 0.020000 0
0.820000 0.020000 0
0.840000 0.020000 0
0.860000 0.020000 0
0.880000 0.020000 0
0.900000 0.020000 0
0.920000 0.020000 0
0.940000 0.020000 0
0.960000 0.020000 0
0.980000 0.020000 0
1.000000 0.020000 0
0.000000 0.040000 0
0.020000 0.040000 0
0.040000 0.040000 0
0.060000 0.040000 0
0.080000 0.040000 0
0.100000 0.040000 0
0.120000 0.040000 0
0.140000 0.040000 0
0.160000 0.040000 0
0.180000 0.040000 0
0.200000 0.040000 0
0.220000 0.040000 0
0.240000 0.040000 0
0.260000 0.040000 0
0.280000 0.040000 0
0.300000 0.040000 0
0.320000 0.040000 0
0.340000 0.040000 0
0.360000 0.040000 0
0.380000 0.040000 0
0.400000 0.040000 0
0.420000 0.040000 0
0.440000 0.040000 0
0.460000 0.040000 0
0.480000 0.040000 0
0.500000 0.040000 0
0.520000 0.040000 0
0.540000 0.040000 0
0.560000 0.040000 0
0.580000 0.040000 0
0.600000 0.040000 0
0.620000 0.040000 0
0.640000 0.040000 0
0.660000 0.040000 0
0.680000 0.040000 0
0.700000 0.040000 0
0.720000 0.040000 0
0.740000 0.040000 0
0.760000 0.040000 0
0.780000 0.040000 0
0.800000 0.040000 0
0.820000 0.040000 0
0.840000 0.040000 0
0.860000 0.040000 0
0.880000 0.040000 0
0.900000 0.040000 0
0.920000 0.040000 0
0.940000 0.040000 0
0.960000 0.040000 0
0.980000 0.040000 0
1.000000 0.040000 0
0.000000 0.060000 0
0.020000 0.060000 0
0.040000 0.060000 0
0.060000 0.060000 0
0.080000 0.060000 0
0.100000 0.060000 0
0.120000 0.060000 0
0.140000 0.060000 0
0.160000 0.060000 0
0.180000 0.060000 0
0.200000 0.060000 0
0.220000 0.060000 0
0.240000 0.060000 0
0.260000 0.060000 0
0.280000 0.060000 0
0.300000 0.060000 0
0.320000 0.060000 0
0.340000 0.060000 0
0.360000 0.060000 0
0.380000 0.060000 0
0.400000 0.060000 0
0.420000 0.060000 0
0.440000 0.060000 0
0.460000 0.060000 0
0.480000 0.060000 0
0.500000 0.060000 0
0.520000 0.060000 0
0.540000 0.060000 0
0.560000 0.060000 0
0.580000 0.060000 0
0.600000 0.060000 0
0.620000 0.060000 0
0.640000 0.060000 0
0.660000 0.060000 0
0.680000 0.060000 0
0.700000 0.060000 0
0.720000 0.060000 0
0.740000 0.060000 0
0.760000 0.060000 0
0.780000 0.060000 0
0.800000 0.060000 0
0.820000 0.060000 0
0.840000 0.060000 0
0.860000 0.060000 0
0.880000 0.060000 0
0.900000 0.060000 0
0.920000 0.060000 0
0.940000 0.060000 0
0.960000 0.060000 0
0.980000 0.060000 0
1.000000 0.060000 0
0.000000 0.080000 0
0.020000 0.080000 0
0.040000 0.080000 0
0.060000 0.080000 0
0.080000 0.080000 0
0.100000 0.080000 0
0.120000 0.080000 0
0.140000 0.080000 0
0.160000 0.080000 0
0.180000 0.080000 0
0.200000 0.080000 0
0.220000 0.080000 0
0.240000 0.080000 0
0.260000 0.080000 0
0.280000 0.080000 0
0.300000 0.080000 0
0.320000 0.080000 0
0.340000 0.080000 0
0.360000 0.080000 0
0.380000 0.080000 0
0.400000 0.080000 0
0.420000 0.080000 0
0.440000 0.080000 0
0.460000 0.080000 0
0.480000 0.080000 0
0.500000 0.080000 0
0.520000 0.080000 0
0.540000 0.080000 0
0.560000 0.080000 0
0.580000 0.080000 0
0.600000 0.080000 0
0.620000 0.080000 0
0.640000 0.080000 0
0.660000 0.080000 0
0.680000 0.080000 0
0.700000 0.080000 0
0.720000 0.080000 0
0.740000 0.080000 0
0.760000 0.080000 0
0.780000 0.080000 0
0.800000 0.080000 0
0.820000 0.080000 0
0.840000 0.080000 0
0.860000 0.080000 0
0.880000 0.080000 0
0.900000 0.080000 0
0.920000 0.080000 0
0.940000 0.080000 0
0.960000 0.080000 0
0.980000 0.080000 0
1.000000 0.080000 0
0.000000 0.100000 0
0.020000 0.100000 0
0.040000 0.100000 0
0.060000 0.100000 0
0.080000 0.100000 0
0.100000 0.100000 0
0.120000 0.100000 0
0.140000 0.100000 0
0.160000 0.100000 0
0.180000 0.100000 0
0.200000 0.100000 0
0.220000 0.100000 0
0.240000 0.100000 0
0.260000 0.100000 0
0.280000 0.100000 0
0.300000 0.100000 0
0.320000 0.100000 0
0.340000 0.100000 0
0.360000 0.100000 0
0.380000 0.100000 0
0.400000 0.100000 0
0.420000 0.100000 0
0.440000 0.100000 0
0.460000 0.100000 0
0.480000 0.100000 0
0.500000 0.100000 0
0.520000 0.100000 0
0.540000 0.100000 0
0.560000 0.100000 0
0.580000 0.100000 0
0.600000 0.100000 0
0.620000 0.100000 0
0.640000 0.100000 0
0.660000 0.100000 0
0.680000 0.100000 0
0.700000 0.100000 0
0.720000 0.100000 0
0.740000 0.100000 0
0.760000 0.100000 0
0.780000 0.100000 0
0.800000 0.100000 0
0.820000 0.100000 0
0.840000 0.100000 0
0.860000 0.100000 0
0.880000 0.100000 0
0.900000 0.100000 0
0.920000 0.100000 0
0.940000 0.100000 0
0.960000 0.100000 0
0.980000 0.100000 0
1.000000 0.100000 0
0.000000 0.120000 0
0.020000 0.120000 0
0.040000 0.120000 0
0.060000 0.120000 0
0.080000 0.120000 0
0.100000 0.120000 0
0.120000 0.120000 0
0.140000 0.120000 0
0.160000 0.120000 0
0.180000 0.120000 0
0.200000 0.120000 0
0.220000 0.120000 0
0.240000 0.120000 0
0.260000 0.120000 0
0.280000 0.120000 0
0.300000 0.120000 0
0.320000 0.120000 0
0.340000 0.120000 0
0.360000 0.120000 0
0.380000 0.120000 0
0.400000 0.120000 0
0.420000 0.120000 0
0.440000 0.120000 0
0.460000 0.120000 0
0.480000 0.120000 0
0.500000 0.120000 0
0.520000 0.120000 0
0.540000 0.120000 0
0.560000 0.120000 0
0.580000 0.120000 0
0.600000 0.120000 0
0.620000 0.120000 0
0.640000 0.120000 0
0.660000 0.120000 0
0.680000 0.120000 0
0.700000 0.120000 0
0.720000 0.120000 0
0.740000 0.120000 0
0.760000 0.120000 0
0.780000 0.120000 0
0.800000 0.120000 0
0.820000 0.120000 0
0.840000 0.120000 0
0.860000 0.120000 0
0.880000 0.120000 0
0.900000 0.120000 0
0.920000 0.120000 0
0.940000 0.120000 0
0.960000 0.120000 0
0.980000 0.120000 0
1.000000 0.120000 0
0.000000 0.140000 0
0.020000 0.140000 0
0.040000 0.140000 0
0.060000 0.140000 0
0.080000 0.140000 0
0.100000 0.140000 0
0.120000 0.140000 0
0.140000 0.140000 0
0.160000 0.140000 0
0.180000 0.140000 0
0.200000 0.140000 0
0.220000 0.140000 0
0.240000 0.140000 0
0.260000 0.140000 0
0.280000 0.140000 0
0.300000 0.140000 0
0.320000 0.140000 0
0.340000 0.140000 0
0.360000 0.140000 0
0.380000 0.140000 0
0.400000 0.140000 0
0.420000 0.140000 0
0.440000 0.140000 0
0.460000 0.140000 0
0.480000 0.140000 0
0.500000 0.140000 0
0.520000 0.140000 0
0.540000 0.140000 0
0.560000 0.140000 0
0.580000 0.140000 0
0.600000 0.140000 0
0.620000 0.140000 0
0.640000 0.140000 0
0.660000 0.140000 0
0.680000 0.140000 0
0.700000 0.140000 0
0.720000 0.140000 0
0.740000 0.140000 0
0.760000 0.140000 0
0.780000 0.140000 0
0.800000 0.140000 0
0.820000 0.140000 0
0.840000 0.140000 0
0.860000 0.140000 0
0.880000 0.140000 0
0.900000 0.140000 0
0.920000 0.140000 0
0.940000 0.140000 0
0.960000 0.140000 0
0.980000 0.140000 0
1.000000 0.140000 0
0.000000 0.160000 0
0.020000 0.160000 0
0.040000 0.160000 0
0.060000 0.160000 0
0.080000 0.160000 0
0.100000 0.160000 0
0.120000 0.160000 0
0.140000 0.160000 0
0.160000 0.160000 0
0.180000 0.160000 0
0.200000 0.160000 0
0.220000 0.160000 0
0.240000 0.160000 0
0.260000 0.160000 0
0.280000 0.160000 0
0.300000 0.160000 0
0.320000 0.160000 0
0.340000 0.160000 0
0.360000 0.160000 0
0.380000 0.160000 0
0.400000 0.160000 0
0.420000 0.160000 0
0.440000 0.160000 0
0.460000 0.160000 0
0.480000 0.160000 0
0.500000 0.160000 0
0.520000 0.160000 0
0.540000 0.160000 0
0.560000 0.160000 0
0.580000 0.160000 0
0.600000 0.160000 0
0.620000 0.160000 0
0.640000 0.160000 0
0.660000 0.160000 0
0.680000 0.160000 0
0.700000 0.160000 0
0.720000 0.160000 0
0.740000 0.160000 0
0.760000 0.160000 0
0.780000 0.160000 0
0.800000 0.160000 0
0.820000 0.160000 0
0.840000 0.160000 0
0.860000 0.160000 0
0.880000 0.160000 0
0.900000 0.160000 0
0.920000 0.160000 0
0.940000 0.160000 0
0.960000 0.160000 0
0.980000 0.160000 0
1.000000 0.160000 0
0.000000 0.180000 0
0.020000 0.180000 0
0.040000 0.180000 0
0.060000 0.180000 0
0.080000 0.180000 0
0.100000 0.180000 0
0.120000 0.180000 0
0.140000 0.180000 0
0.160000 0.180000 0
0.180000 0.180000 0
0.200000 0.180000 0
0.220000 0.180000 0
0.240000 0.180000 0
0.260000 0.180000 0
0.280000 0.180000 0
0.300000 0.180000 0
0.320000 0.180000 0
0.340000 0.180000 0
0.360000 0.180000 0
0.380000 0.180000 0
0.400000 0.180000 0
0.420000 0.180000 0
0.440000 0.180000 0
0.460000 0.180000 0
0.480000 0.180000 0
0.500000 0.180000 0
0.520000 0.180000 0
0.540000 0.180000 0
0.560000 0.180000 0
0.580000 0.180000 0
0.600000 0.180000 0
0.620000 0.180000 0
[...]
POINT_DATA 2601 

VECTORS velocity float
0.000000 0.000000 0
0.000000 0.000000 0
0.000000 0.000000 0
0.000000 0.000000 0
0.000000 0.000000 0
0.000000 0.000000 0
0.000000 0.000000 0
0.000000 0.000000 0
0.000000 0.000000 0
0.000000 0.000000 0
0.000000 0.000000 0
0.000000 0.000000 0
0.000000 0.000000 0
0.000000 0.000000 0
0.000000 0.000000 0
0.000000 0.000000 0
0.000000 0.000000 0
0.000000 0.000000 0
0.000000 0.000000 0
0.000000 0.000000 0
0.000000 0.000000 0
0.000000 0.000000 0
0.000001 0.000000 0
0.000001 0.000000 0
0.000001 0.000000 0
0.000001 0.000000 0
0.000001 0.000000 0
0.000001 0.000000 0
0.000001 0.000000 0
0.000001 0.000000 0
0.000001 0.000000 0
0.000001 0.000000 0
0.000001 0.000000 0
0.000002 0.000000 0
0.000002 0.000000 0
0.000002 0.000000 0
0.000002 0.000000 0
0.000002 0.000000 0
0.000002 0.000000 0
0.000002 0.000000 0
0.000002 0.000000 0
0.000002 0.000000 0
0.000002 0.000000 0
0.000002 0.000000 0
0.000001 0.000000 0
0.000001 0.000000 0
0.000001 0.000000 0
0.000001 0.000000 0
0.000001 0.000000 0
0.000000 0.000000 0
0.000000 0.000000 0
0.000000 -0.000000 0
-0.000008 -0.000018 0
-0.000015 -0.000038 0
-0.000023 -0.000060 0
-0.000030 -0.000087 0
-0.000037 -0.000120 0
-0.000044 -0.000160 0
-0.000051 -0.000209 0
-0.000057 -0.000268 0
-0.000063 -0.000341 0
-0.000068 -0.000427 0
-0.000072 -0.000530 0
-0.000076 -0.000652 0
-0.000078 -0.000794 0
-0.000079 -0.000960 0
-0.000078 -0.001151 0
-0.000075 -0.001371 0
-0.000069 -0.001621 0
-0.000060 -0.001906 0
-0.000047 -0.002227 0
-0.000029 -0.002587 0
-0.000005 -0.002988 0
0.000026 -0.003433 0
0.000064 -0.003924 0
0.000112 -0.004463 0
0.000170 -0.005048 0
0.000239 -0.005682 0
0.000321 -0.006362 0
0.000416 -0.007085 0
0.000526 -0.007846 0
0.000649 -0.008638 0
0.000786 -0.009451 0
0.000935 -0.010270 0
0.001094 -0.011075 0
0.001259 -0.011844 0
0.001425 -0.012547 0
0.001586 -0.013150 0
0.001733 -0.013612 0
0.001858 -0.013892 0
0.001951 -0.013949 0
0.002001 -0.013746 0
0.002002 -0.013255 0
0.001946 -0.012464 0
0.001834 -0.011378 0
0.001666 -0.010024 0
0.001450 -0.008445 0
0.001195 -0.006695 0
0.000912 -0.004833 0
0.000613 -0.002912 0
0.000307 -0.000971 0
0.000000 0.000000 0
0.000000 -0.000000 0
-0.000015 -0.000036 0
-0.000031 -0.000074 0
-0.000046 -0.000119 0
-0.000060 -0.000171 0
-0.000075 -0.000236 0
-0.000089 -0.000315 0
-0.000102 -0.000411 0
-0.000114 -0.000530 0
-0.000125 -0.000672 0
-0.000135 -0.000844 0
-0.000144 -0.001047 0
-0.000150 -0.001288 0
-0.000154 -0.001569 0
-0.000156 -0.001896 0
-0.000153 -0.002274 0
-0.000146 -0.002707 0
-0.000134 -0.003201 0
-0.000115 -0.003761 0
-0.000088 -0.004392 0
-0.000051 -0.005098 0
-0.000002 -0.005884 0
0.000060 -0.006755 0
0.000137 -0.007714 0
0.000233 -0.008763 0
0.000349 -0.009902 0
0.000488 -0.011132 0
0.000650 -0.012449 0
0.000840 -0.013847 0
0.001056 -0.015317 0
0.001300 -0.016845 0
0.001570 -0.018409 0
0.001864 -0.019985 0
0.002177 -0.021536 0
0.002503 -0.023018 0
0.002831 -0.024377 0
0.003150 -0.025548 0
0.003443 -0.026456 0
0.003693 -0.027023 0
0.003881 -0.027166 0
0.003988 -0.026813 0
0.003996 -0.025907 0
0.003894 -0.024415 0
0.003677 -0.022343 0
0.003348 -0.019732 0
0.002920 -0.016662 0
0.002410 -0.013236 0
0.001843 -0.009572 0
0.001241 -0.005775 0
0.000622 -0.001928 0
0.000000 0.000000 0
0.000000 -0.000000 0
-0.000023 -0.000052 0
-0.000046 -0.000108 0
-0.000069 -0.000172 0
-0.000091 -0.000249 0
-0.000112 -0.000344 0
-0.000133 -0.000460 0
-0.000152 -0.000602 0
-0.000170 -0.000776 0
-0.000186 -0.000986 0
-0.000200 -0.001239 0
-0.000212 -0.001539 0
-0.000221 -0.001894 0
-0.000226 -0.002308 0
-0.000227 -0.002789 0
-0.000222 -0.003344 0
-0.000210 -0.003979 0
-0.000190 -0.004702 0
-0.000159 -0.005520 0
-0.000116 -0.006440 0
-0.000059 -0.007468 0
0.000016 -0.008610 0
0.000110 -0.009871 0
0.000228 -0.011256 0
0.000373 -0.012767 0
0.000547 -0.014404 0
0.000754 -0.016166 0
0.000997 -0.018048 0
0.001277 -0.020041 0
0.001598 -0.022131 0
0.001957 -0.024299 0
0.002356 -0.026518 0
0.002788 -0.028751 0
0.003250 -0.030951 0
0.003730 -0.033059 0
0.004215 -0.035001 0
0.004687 -0.036690 0
0.005126 -0.038023 0
0.005504 -0.038888 0
0.005794 -0.039169 0
0.005966 -0.038757 0
0.005995 -0.037557 0
0.005860 -0.035514 0
0.005551 -0.032615 0
0.005072 -0.028908 0
0.004436 -0.024493 0
0.003672 -0.019517 0
0.002814 -0.014149 0
0.001897 -0.008553 0
0.000953 -0.002859 0
0.000000 0.000000 0
0.000000 -0.000000 0
-0.000031 -0.000066 0
-0.000062 -0.000137 0
-0.000092 -0.000219 0
-0.000121 -0.000318 0
-0.000150 -0.000439 0
-0.000176 -0.000590 0
-0.000202 -0.000775 0
-0.000225 -0.001001 0
-0.000246 -0.001275 0
-0.000263 -0.001603 0
-0.000278 -0.001994 0
-0.000287 -0.002455 0
-0.000292 -0.002993 0
-0.000291 -0.003618 0
-0.000281 -0.004336 0
-0.000262 -0.005158 0
-0.000232 -0.006091 0
-0.000188 -0.007144 0
-0.000127 -0.008325 0
-0.000047 -0.009641 0
0.000055 -0.011099 0
0.000185 -0.012705 0
0.000345 -0.014462 0
0.000539 -0.016372 0
0.000771 -0.018436 0
0.001047 -0.020649 0
0.001368 -0.023005 0
0.001737 -0.025493 0
0.002158 -0.028097 0
0.002629 -0.030792 0
0.003149 -0.033548 0
0.003714 -0.036322 0
0.004316 -0.039060 0
0.004943 -0.041694 0
0.005580 -0.044138 0
0.006203 -0.046288 0
0.006787 -0.048024 0
0.007297 -0.049206 0
0.007697 -0.049688 0
0.007949 -0.049322 0
0.008015 -0.047978 0
0.007866 -0.045561 0
0.007483 -0.042031 0
0.006864 -0.037422 0
0.006027 -0.031843 0
0.005006 -0.025471 0
0.003847 -0.018523 0
0.002599 -0.011223 0
0.001306 -0.003756 0
0.000000 0.000000 0
0.000000 -0.000000 0
-0.000039 -0.000076 0
-0.000078 -0.000159 0
-0.000115 -0.000256 0
-0.000152 -0.000374 0
-0.000187 -0.000520 0
-0.000220 -0.000700 0
-0.000251 -0.000923 0
-0.000279 -0.001197 0
-0.000303 -0.001529 0
-0.000323 -0.001928 0
-0.000339 -0.002401 0
-0.000348 -0.002960 0
-0.000351 -0.003611 0
-0.000345 -0.004365 0
-0.000329 -0.005232 0
-0.000301 -0.006220 0
-0.000258 -0.007340 0
-0.000198 -0.008601 0
-0.000117 -0.010010 0
-0.000011 -0.011576 0
0.000122 -0.013304 0
0.000288 -0.015201 0
0.000492 -0.017269 0
0.000737 -0.019509 0
0.001029 -0.021921 0
0.001372 -0.024498 0
0.001770 -0.027233 0
0.002226 -0.030113 0
0.002743 -0.033119 0
0.003320 -0.036227 0
0.003957 -0.039403 0
0.004647 -0.042604 0
0.005384 -0.045773 0
0.006153 -0.048837 0
0.006936 -0.051706 0
0.007709 -0.054268 0
0.008440 -0.056389 0
0.009089 -0.057910 0
0.009611 -0.058658 0
0.009958 -0.058450 0
0.010081 -0.057113 0
0.009938 -0.054506 0
0.009499 -0.050548 0
0.008756 -0.045242 0
0.007723 -0.038689 0
0.006440 -0.031083 0
0.004964 -0.022687 0
0.003362 -0.013782 0
0.001692 -0.004618 0
0.000000 0.000000 0
0.000000 -0.000000 0
-0.000047 -0.000083 0
-0.000094 -0.000175 0
-0.000139 -0.000282 0
-0.000183 -0.000415 0
-0.000225 -0.000580 0
-0.000264 -0.000786 0
-0.000299 -0.001043 0
-0.000331 -0.001358 0
-0.000358 -0.001742 0
-0.000380 -0.002203 0
-0.000395 -0.002751 0
-0.000402 -0.003396 0
-0.000401 -0.004148 0
-0.000389 -0.005017 0
-0.000364 -0.006014 0
-0.000323 -0.007148 0
-0.000265 -0.008429 0
-0.000186 -0.009867 0
-0.000081 -0.011469 0
0.000052 -0.013243 0
0.000219 -0.015194 0
0.000425 -0.017327 0
0.000674 -0.019644 0
0.000972 -0.022145 0
0.001324 -0.024827 0
0.001734 -0.027683 0
0.002208 -0.030705 0
0.002749 -0.033879 0
0.003359 -0.037187 0
0.004038 -0.040604 0
0.004786 -0.044097 0
0.005597 -0.047625 0
0.006463 -0.051131 0
0.007370 -0.054546 0
0.008298 -0.057778 0
0.009220 -0.060713 0
0.010102 -0.063209 0
0.010898 -0.065095 0
0.011556 -0.066173 0
0.012017 -0.066228 0
0.012219 -0.065042 0
0.012106 -0.062420 0
0.011632 -0.058226 0
0.010778 -0.052419 0
0.009554 -0.045074 0
0.008001 -0.036391 0
0.006190 -0.026667 0
0.004202 -0.016246 0
0.002118 -0.005452 0
0.000000 0.000000 0
0.000000 -0.000000 0
-0.000056 -0.000086 0
-0.000111 -0.000181 0
-0.000164 -0.000295 0
-0.000215 -0.000437 0
-0.000263 -0.000616 0
-0.000308 -0.000843 0
-0.000348 -0.001127 0
-0.000383 -0.001478 0
-0.000411 -0.001906 0
-0.000433 -0.002421 0
-0.000446 -0.003033 0
-0.000450 -0.003754 0
-0.000442 -0.004593 0
-0.000421 -0.005561 0
-0.000384 -0.006669 0
-0.000329 -0.007926 0
-0.000252 -0.009343 0
-0.000150 -0.010927 0
-0.000019 -0.012686 0
0.000146 -0.014627 0
0.000350 -0.016755 0
0.000598 -0.019072 0
0.000895 -0.021579 0
0.001247 -0.024275 0
0.001659 -0.027156 0
0.002137 -0.030216 0
0.002686 -0.033444 0
0.003310 -0.036829 0
0.004010 -0.040352 0
0.004789 -0.043991 0
0.005644 -0.047717 0
0.006572 -0.051492 0
0.007563 -0.055265 0
0.008605 -0.058969 0
0.009677 -0.062519 0
0.010752 -0.065801 0
0.011790 -0.068672 0
0.012744 -0.070950 0
0.013554 -0.072419 0
0.014149 -0.072833 0
0.014454 -0.071927 0
0.014396 -0.069448 0
0.013910 -0.065196 0
0.012962 -0.059067 0
0.011551 -0.051094 0
0.009719 -0.041469 0
0.007547 -0.030518 0
0.005137 -0.018649 0
0.002594 -0.006269 0
0.000000 0.000000 0
0.000000 -0.000000 0
-0.000065 -0.000083 0
-0.000128 -0.000176 0
-0.000190 -0.000290 0
-0.000248 -0.000437 0
-0.000303 -0.000625 0
-0.000353 -0.000867 0
-0.000397 -0.001172 0
-0.000434 -0.001551 0
-0.000463 -0.002015 0
-0.000483 -0.002575 0
-0.000493 -0.003242 0
-0.000490 -0.004026 0
-0.000474 -0.004938 0
-0.000441 -0.005989 0
-0.000390 -0.007189 0
-0.000316 -0.008547 0
-0.000218 -0.010073 0
-0.000090 -0.011774 0
0.000072 -0.013656 0
0.000271 -0.015726 0
0.000515 -0.017987 0
0.000807 -0.020439 0
0.001154 -0.023084 0
0.001562 -0.025918 0
0.002037 -0.028937 0
0.002583 -0.032135 0
0.003206 -0.035504 0
0.003911 -0.039030 0
0.004700 -0.042700 0
0.005575 -0.046495 0
0.006535 -0.050391 0
0.007577 -0.054354 0
0.008693 -0.058342 0
0.009869 -0.062295 0
0.011086 -0.066133 0
0.012316 -0.069749 0
0.013520 -0.073000 0
0.014643 -0.075700 0
0.015621 -0.077619 0
0.016373 -0.078479 0
0.016808 -0.077970 0
0.016832 -0.075777 0
0.016361 -0.071625 0
0.015337 -0.065332 0
0.013745 -0.056875 0
0.011623 -0.046420 0
0.009062 -0.034316 0
0.006186 -0.021037 0
0.003129 -0.007084 0
0.000000 0.000000 0
0.000000 -0.000000 0
-0.000074 -0.000073 0
-0.000147 -0.000158 0
-0.000217 -0.000267 0
-0.000284 -0.000411 0
-0.000345 -0.000602 0
-0.000400 -0.000851 0
-0.000447 -0.001170 0
-0.000486 -0.001570 0
-0.000515 -0.002063 0
-0.000532 -0.002659 0
-0.000536 -0.003369 0
-0.000525 -0.004205 0
-0.000497 -0.005176 0
-0.000450 -0.006294 0
-0.000381 -0.007567 0
-0.000286 -0.009005 0
-0.000162 -0.010616 0
-0.000005 -0.012406 0
0.000190 -0.014381 0
0.000428 -0.016545 0
0.000714 -0.018899 0
0.001054 -0.021446 0
0.001453 -0.024182 0
0.001919 -0.027107 0
0.002456 -0.030214 0
0.003071 -0.033500 0
0.003769 -0.036955 0
0.004554 -0.040571 0
0.005431 -0.044338 0
0.006400 -0.048240 0
0.007464 -0.052259 0
0.008618 -0.056370 0
0.009857 -0.060539 0
0.011168 -0.064714 0
0.012533 -0.068825 0
0.013923 -0.072772 0
0.015300 -0.076416 0
0.016606 -0.079571 0
0.017771 -0.081993 0
0.018703 -0.083379 0
0.019296 -0.083374 0
0.019434 -0.081597 0
0.019006 -0.077687 0
0.017928 -0.071374 0
0.016163 -0.062557 0
0.013741 -0.051361 0
0.010759 -0.038151 0
0.007367 -0.023467 0
0.003733 -0.007917 0
0.000000 0.000000 0
0.000000 -0.000000 0
-0.000085 -0.000057 0
-0.000168 -0.000126 0
-0.000247 -0.000222 0
-0.000322 -0.000357 0
-0.000390 -0.000542 0
-0.000450 -0.000792 0
-0.000500 -0.001118 0
-0.000540 -0.001531 0
-0.000566 -0.002043 0
-0.000579 -0.002665 0
-0.000576 -0.003409 0
-0.000554 -0.004285 0
-0.000513 -0.005303 0
-0.000448 -0.006472 0
-0.000358 -0.007802 0
-0.000238 -0.009300 0
-0.000086 -0.010973 0
0.000104 -0.012828 0
0.000336 -0.014867 0
0.000615 -0.017094 0
0.000947 -0.019511 0
0.001337 -0.022115 0
0.001791 -0.024907 0
0.002316 -0.027884 0
0.002917 -0.031040 0
0.003602 -0.034373 0
0.004374 -0.037876 0
0.005239 -0.041544 0
0.006202 -0.045370 0
0.007266 -0.049345 0
0.008431 -0.053458 0
0.009697 -0.057692 0
0.011059 -0.062020 0
0.012506 -0.066404 0
0.014021 -0.070782 0
0.015578 -0.075064 0
0.017136 -0.079118 0
0.018638 -0.082760 0
0.020008 -0.085739 0
0.021145 -0.087727 0
0.021926 -0.088326 0
0.022212 -0.087085 0
0.021862 -0.083552 0
0.020757 -0.077350 0
0.018831 -0.068283 0
0.016098 -0.056417 0
0.012661 -0.042119 0
0.008698 -0.026000 0
0.004415 -0.008787 0
0.000000 0.000000 0
0.000000 -0.000000 0
-0.000096 -0.000032 0
-0.000190 -0.000078 0
-0.000280 -0.000152 0
-0.000363 -0.000269 0
-0.000439 -0.000442 0
-0.000504 -0.000684 0
-0.000557 -0.001008 0
-0.000596 -0.001426 0
-0.000620 -0.001950 0
-0.000627 -0.002590 0
-0.000614 -0.003357 0
-0.000580 -0.004262 0
-0.000522 -0.005313 0
-0.000437 -0.006520 0
-0.000323 -0.007891 0
-0.000175 -0.009432 0
0.000010 -0.011148 0
0.000236 -0.013046 0
0.000508 -0.015126 0
0.000832 -0.017391 0
0.001212 -0.019842 0
0.001655 -0.022477 0
0.002166 -0.025295 0
0.002752 -0.028293 0
0.003419 -0.031469 0
0.004173 -0.034819 0
0.005020 -0.038342 0
0.005966 -0.042035 0
0.007015 -0.045896 0
0.008172 -0.049923 0
0.009439 -0.054111 0
0.010816 -0.058451 0
0.012300 -0.062929 0
0.013884 -0.067515 0
0.015552 -0.072160 0
0.017280 -0.076786 0
0.019028 -0.081271 0
0.020740 -0.085434 0
0.022333 -0.089020 0
0.023700 -0.091683 0
0.024701 -0.092981 0
0.025171 -0.092394 0
0.024936 -0.089368 0
0.023836 -0.083407 0
0.021766 -0.074193 0
0.018717 -0.061711 0
0.014792 -0.046319 0
0.010197 -0.028701 0
0.005187 -0.009719 0
0.000000 0.000000 0
0.000000 -0.000000 0
-0.000109 0.000003 0
-0.000216 -0.000010 0
-0.000317 -0.000054 0
-0.000410 -0.000144 0
-0.000493 -0.000296 0
-0.000564 -0.000522 0
-0.000619 -0.000837 0
-0.000658 -0.001251 0
-0.000678 -0.001777 0
-0.000677 -0.002426 0
-0.000653 -0.003207 0
-0.000604 -0.004131 0
-0.000527 -0.005205 0
-0.000419 -0.006438 0
-0.000277 -0.007835 0
-0.000098 -0.009403 0
0.000123 -0.011147 0
0.000388 -0.013069 0
0.000705 -0.015171 0
0.001076 -0.017454 0
0.001508 -0.019917 0
0.002006 -0.022560 0
0.002577 -0.025382 0
0.003226 -0.028379 0
0.003960 -0.031552 0
0.004785 -0.034900 0
0.005707 -0.038422 0
0.006733 -0.042123 0
0.007868 -0.046003 0
0.009118 -0.050068 0
0.010486 -0.054320 0
0.011974 -0.058760 0
0.013581 -0.063382 0
0.015303 -0.068170 0
0.017126 -0.073088 0
0.019029 -0.078070 0
0.020975 -0.083006 0
0.022907 -0.087725 0
0.024742 -0.091968 0
0.026362 -0.095376 0
0.027615 -0.097468 0
0.028309 -0.097652 0
0.028231 -0.095265 0
0.027174 -0.089673 0
0.024985 -0.080413 0
0.021618 -0.067363 0
0.017172 -0.050850 0
0.011881 -0.031635 0
0.006056 -0.010735 0
0.000000 0.000000 0
0.000000 -0.000000 0
-0.000124 0.000049 0
-0.000245 0.000080 0
-0.000360 0.000077 0
-0.000464 0.000023 0
-0.000556 -0.000098 0
-0.000632 -0.000299 0
-0.000690 -0.000595 0
-0.000728 -0.000998 0
-0.000743 -0.001519 0
-0.000733 -0.002168 0
-0.000696 -0.002955 0
-0.000629 -0.003889 0
-0.000530 -0.004976 0
-0.000396 -0.006223 0
-0.000223 -0.007636 0
-0.000009 -0.009219 0
0.000251 -0.010976 0
0.000560 -0.012908 0
0.000924 -0.015016 0
0.001346 -0.017300 0
0.001833 -0.019760 0
0.002390 -0.022394 0
0.003022 -0.025202 0
0.003736 -0.028183 0
0.004539 -0.031338 0
0.005436 -0.034669 0
0.006434 -0.038179 0
0.007541 -0.041875 0
0.008762 -0.045765 0
0.010104 -0.049860 0
0.011572 -0.054170 0
0.013170 -0.058706 0
0.014900 -0.063473 0
0.016760 -0.068467 0
0.018740 -0.073665 0
0.020822 -0.079016 0
0.022971 -0.084425 0
0.025133 -0.089732 0
0.027224 -0.094683 0
0.029122 -0.098906 0
0.030658 -0.101886 0
0.031615 -0.102959 0
0.031739 -0.101348 0
0.030769 -0.096260 0
0.028492 -0.087060 0
0.024815 -0.073485 0
0.019818 -0.055810 0
0.013765 -0.034869 0
0.007032 -0.011859 0
0.000000 0.000000 0
0.000000 -0.000000 0
-0.000142 0.000107 0
-0.000280 0.000195 0
-0.000409 0.000245 0
-0.000527 0.000238 0
-0.000629 0.000159 0
-0.000712 -0.000008 0
-0.000773 -0.000277 0
-0.000809 -0.000660 0
-0.000818 -0.001168 0
-0.000798 -0.001811 0
-0.000745 -0.002596 0
-0.000658 -0.003531 0
-0.000534 -0.004623 0
-0.000370 -0.005876 0
-0.000164 -0.007295 0
0.000089 -0.008883 0
0.000392 -0.010642 0
0.000749 -0.012572 0
0.001163 -0.014675 0
0.001640 -0.016948 0
0.002185 -0.019392 0
0.002803 -0.022005 0
0.003500 -0.024789 0
0.004282 -0.027742 0
0.005154 -0.030869 0
0.006125 -0.034173 0
0.007200 -0.037662 0
0.008388 -0.041348 0
0.009695 -0.045243 0
0.011129 -0.049364 0
0.012697 -0.053731 0
0.014405 -0.058363 0
0.016257 -0.063276 0
0.018255 -0.068479 0
0.020392 -0.073965 0
0.022653 -0.079699 0
0.025010 -0.085603 0
0.027410 -0.091531 0
0.029771 -0.097238 0
0.031966 -0.102346 0
0.033814 -0.106309 0
0.035074 -0.108394 0
0.035448 -0.107700 0
0.034614 -0.103262 0
0.032289 -0.094238 0
0.028313 -0.080184 0
0.022742 -0.061294 0
0.015861 -0.038470 0
0.008123 -0.013115 0
0.000000 0.000000 0
0.000000 -0.000000 0
-0.000163 0.000181 0
-0.000321 0.000340 0
-0.000468 0.000456 0
-0.000601 0.000509 0
-0.000715 0.000482 0
-0.000805 0.000359 0
-0.000870 0.000126 0
-0.000904 -0.000229 0
-0.000907 -0.000717 0
-0.000874 -0.001346 0
-0.000805 -0.002123 0
-0.000695 -0.003054 0
-0.000543 -0.004144 0
-0.000346 -0.005396 0
-0.000102 -0.006814 0
0.000194 -0.008400 0
0.000543 -0.010153 0
0.000951 -0.012073 0
0.001421 -0.014161 0
0.001956 -0.016415 0
0.002563 -0.018834 0
0.003245 -0.021419 0
0.004009 -0.024169 0
0.004861 -0.027088 0
0.005806 -0.030180 0
0.006851 -0.033452 0
0.008005 -0.036916 0
0.009274 -0.040587 0
0.010668 -0.044485 0
0.012194 -0.048631 0
0.013861 -0.053054 0
0.015678 -0.057783 0
0.017651 -0.062845 0
0.019785 -0.068262 0
0.022078 -0.074044 0
0.024520 -0.080175 0
0.027086 -0.086594 0
0.029729 -0.093175 0
0.032368 -0.099685 0
0.034877 -0.105748 0
0.037064 -0.110791 0
0.038664 -0.114013 0
0.039336 -0.114389 0
0.038692 -0.110757 0
0.036364 -0.102038 0
0.032113 -0.087559 0
0.025949 -0.067394 0
0.018177 -0.042505 0
0.009333 -0.014527 0
0.000000 0.000000 0
0.000000 -0.000000 0
-0.000188 0.000271 0
-0.000369 0.000518 0
-0.000538 0.000716 0
-0.000689 0.000844 0
-0.000817 0.000882 0
-0.000917 0.000813 0
-0.000986 0.000625 0
-0.001019 0.000305 0
-0.001014 -0.000156 0
-0.000968 -0.000766 0
-0.000879 -0.001529 0
-0.000744 -0.002451 0
-0.000561 -0.003535 0
-0.000328 -0.004782 0
-0.000041 -0.006194 0
0.000301 -0.007772 0
0.000702 -0.009513 0
0.001165 -0.011419 0
0.001694 -0.013486 0
0.002292 -0.015715 0
0.002964 -0.018104 0
0.003715 -0.020655 0
0.004550 -0.023368 0
0.005474 -0.026247 0
0.006494 -0.029301 0
0.007616 -0.032539 0
0.008850 -0.035976 0
0.010202 -0.039631 0
0.011682 -0.043530 0
0.013299 -0.047702 0
0.015066 -0.052181 0
0.016990 -0.057008 0
0.019083 -0.062221 0
0.021351 -0.067858 0
0.023798 -0.073944 0
0.026418 -0.080483 0
0.029193 -0.087437 0
0.032080 -0.094701 0
0.035005 -0.102062 0
0.037839 -0.109148 0
0.040386 -0.115369 0
0.042360 -0.119859 0
0.043376 -0.121463 0
0.042976 -0.118809 0
0.040697 -0.110539 0
0.036202 -0.095701 0
0.029437 -0.074200 0
0.020717 -0.047039 0
0.010666 -0.016120 0
0.000000 0.000000 0
0.000000 -0.000000 0
-0.000218 0.000383 0
-0.000428 0.000737 0
-0.000623 0.001035 0
-0.000796 0.001252 0
-0.000941 0.001369 0
-0.001053 0.001367 0
-0.001127 0.001232 0
-0.001159 0.000955 0
-0.001146 0.000526 0
-0.001085 -0.000060 0
-0.000974 -0.000807 0
-0.000811 -0.001717 0
-0.000594 -0.002792 0
-0.000319 -0.004032 0
0.000013 -0.005435 0
0.000407 -0.007002 0
0.000865 -0.008730 0
0.001388 -0.010617 0
0.001981 -0.012661 0
0.002647 -0.014862 0
0.003389 -0.017218 0
0.004212 -0.019732 0
0.005121 -0.022405 0
0.006121 -0.025244 0
0.007219 -0.028258 0
0.008421 -0.031460 0
0.009736 -0.034869 0
0.011172 -0.038509 0
0.012739 -0.042408 0
0.014449 -0.046606 0
0.016313 -0.051143 0
0.018344 -0.056069 0
0.020554 -0.061436 0
0.022954 -0.067295 0
0.025552 -0.073691 0
0.028347 -0.080649 0
0.031327 -0.088157 0
0.034458 -0.096133 0
0.037668 -0.104390 0
0.040836 -0.112568 0
0.043759 -0.120065 0
0.046134 -0.125957 0
0.047535 -0.128958 0
0.047433 -0.127467 0
0.045259 -0.119808 0
0.040559 -0.104691 0
0.033193 -0.081793 0
0.023474 -0.052136 0
0.012120 -0.017918 0
0.000000 0.000000 0
0.000000 -0.000000 0
-0.000255 0.000519 0
-0.000500 0.001004 0
-0.000726 0.001422 0
-0.000926 0.001748 0
-0.001092 0.001958 0
-0.001218 0.002034 0
-0.001299 0.001963 0
-0.001330 0.001734 0
-0.001308 0.001342 0
-0.001231 0.000782 0
-0.001096 0.000053 0
-0.000902 -0.000844 0
-0.000645 -0.001910 0
-0.000326 -0.003141 0
0.000058 -0.004537 0
0.000509 -0.006093 0
0.001028 -0.007806 0
0.001617 -0.009674 0
0.002280 -0.011695 0
0.003018 -0.013867 0
0.003835 -0.016190 0