# vtk DataFile Version 2.0
generated by CFD-lab course output (written by Tobias Neckel) 
ASCII

DATASET STRUCTURED_GRID
DIMENSIONS  51 51 1 
POINTS 2601 float

0.000000 0.000000 0
0.020000 0.000000 0
0.040000 0.000000 0
0.060000 0.000000 0
0.080000 0.000000 0
0.100000 0.000000 0
0.120000 0.000000 0
0.140000 0.000000 0
0.160000 0.000000 0
0.180000 0.000000 0
0.200000 0.000000 0
0.220000 0.000000 0
0.240000 0.000000 0
0.260000 0.000000 0
0.280000 0.000000 0
0.300000 0.000000 0
0.320000 0.000000 0
0.340000 0.000000 0
0.360000 0.000000 0
0.380000 0.000000 0
0.400000 0.000000 0
0.420000 0.000000 0
0.440000 0.000000 0
0.460000 0.000000 0
0.480000 0.000000 0
0.500000 0.000000 0
0.520000 0.000000 0
0.540000 0.000000 0
0.560000 0.000000 0
0.580000 0.000000 0
0.600000 0.000000 0
0.620000 0.000000 0
0.640000 0.000000 0
0.660000 0.000000 0
0.680000 0.000000 0
0.700000 0.000000 0
0.720000 0.000000 0
0.740000 0.000000 0
0.760000 0.000000 0
0.780000 0.000000 0
0.800000 0.000000 0
0.820000 0.000000 0
0.840000 0.000000 0
0.860000 0.000000 0
0.880000 0.000000 0
0.900000 0.000000 0
0.920000 0.000000 0
0.940000 0.000000 0
0.960000 0.000000 0
0.980000 0.000000 0
1.000000 0.000000 0
0.000000 0.020000 0
0.020000 0.020000 0
0.040000 0.020000 0
0.060000 0.020000 0
0.080000 0.020000 0
0.100000 0.020000 0
0.120000 0.020000 0
0.140000 0.020000 0
0.160000 0.020000 0
0.180000 0.020000 0
0.200000 0.020000 0
0.220000 0.020000 0
0.240000 0.020000 0
0.260000 0.020000 0
0.280000 0.020000 0
0.300000 0.020000 0
0.320000 0.020000 0
0.340000 0.020000 0
0.360000 0.020000 0
0.380000 0.020000 0
0.400000 0.020000 0
0.420000 0.020000 0
0.440000 0.020000 0
0.460000 0.020000 0
0.480000 0.020000 0
0.500000 0.020000 0
0.520000 0.020000 0
0.540000 0.020000 0
0.560000 0.020000 0
0.580000 0.020000 0
0.600000 0.020000 0
0.620000 0.020000 0
0.640000 0.020000 0
0.660000 0.020000 0
0.680000 0.020000 0
0.700000 0.020000 0
0.720000 0.020000 0
0.740000 0.020000 0
0.760000 0.020000 0
0.780000 0.020000 0
0.800000 0.020000 0
0.820000 0.020000 0
0.840000 0.020000 0
0.860000 0.020000 0
0.880000 0.020000 0
0.900000 0.020000 0
0.920000 0.020000 0
0.940000 0.020000 0
0.960000 0.020000 0
0.980000 0.020000 0
1.000000 0.020000 0
0.000000 0.040000 0
0.020000 0.040000 0
0.040000 0.040000 0
0.060000 0.040000 0
0.080000 0.040000 0
0.100000 0.040000 0
0.120000 0.040000 0
0.140000 0.040000 0
0.160000 0.040000 0
0.180000 0.040000 0
0.200000 0.040000 0
0.220000 0.040000 0
0.240000 0.040000 0
0.260000 0.040000 0
0.280000 0.040000 0
0.300000 0.040000 0
0.320000 0.040000 0
0.340000 0.040000 0
0.360000 0.040000 0
0.380000 0.040000 0
0.400000 0.040000 0
0.420000 0.040000 0
0.440000 0.040000 0
0.460000 0.040000 0
0.480000 0.040000 0
0.500000 0.040000 0
0.520000 0.040000 0
0.540000 0.040000 0
0.560000 0.040000 0
0.580000 0.040000 0
0.600000 0.040000 0
0.620000 0.040000 0
0.640000 0.040000 0
0.660000 0.040000 0
0.680000 0.040000 0
0.700000 0.040000 0
0.720000 0.040000 0
0.740000 0.040000 0
0.760000 0.040000 0
0.780000 0.040000 0
0.800000 0.040000 0
0.820000 0.040000 0
0.840000 0.040000 0
0.860000 0.040000 0
0.880000 0.040000 0
0.900000 0.040000 0
0.920000 0.040000 0
0.940000 0.040000 0
0.960000 0.040000 0
0.980000 0.040000 0
1.000000 0.040000 0
0.000000 0.060000 0
0.020000 0.060000 0
0.040000 0.060000 0
0.060000 0.060000 0
0.080000 0.060000 0
0.100000 0.060000 0
0.120000 0.060000 0
0.140000 0.060000 0
0.160000 0.060000 0
0.180000 0.060000 0
0.200000 0.060000 0
0.220000 0.060000 0
0.240000 0.060000 0
0.260000 0.060000 0
0.280000 0.060000 0
0.300000 0.060000 0
0.320000 0.060000 0
0.340000 0.060000 0
0.360000 0.060000 0
0.380000 0.060000 0
0.400000 0.060000 0
0.420000 0.060000 0
0.440000 0.060000 0
0.460000 0.060000 0
0.480000 0.060000 0
0.500000 0.060000 0
0.520000 0.060000 0
0.540000 0.060000 0
0.560000 0.060000 0
0.580000 0.060000 0
0.600000 0.060000 0
0.620000 0.060000 0
0.640000 0.060000 0
0.660000 0.060000 0
0.680000 0.060000 0
0.700000 0.060000 0
0.720000 0.060000 0
0.740000 0.060000 0
0.760000 0.060000 0
0.780000 0.060000 0
0.800000 0.060000 0
0.820000 0.060000 0
0.840000 0.060000 0
0.860000 0.060000 0
0.880000 0.060000 0
0.900000 0.060000 0
0.920000 0.060000 0
0.940000 0.060000 0
0.960000 0.060000 0
0.980000 0.060000 0
1.000000 0.060000 0
0.000000 0.080000 0
0.020000 0.080000 0
0.040000 0.080000 0
0.060000 0.080000 0
0.080000 0.080000 0
0.100000 0.080000 0
0.120000 0.080000 0
0.140000 0.080000 0
0.160000 0.080000 0
0.180000 0.080000 0
0.200000 0.080000 0
0.220000 0.080000 0
0.240000 0.080000 0
0.260000 0.080000 0
0.280000 0.080000 0
0.300000 0.080000 0
0.320000 0.080000 0
0.340000 0.080000 0
0.360000 0.080000 0
0.380000 0.080000 0
0.400000 0.080000 0
0.420000 0.080000 0
0.440000 0.080000 0
0.460000 0.080000 0
0.480000 0.080000 0
0.500000 0.080000 0
0.520000 0.080000 0
0.540000 0.080000 0
0.560000 0.080000 0
0.580000 0.080000 0
0.600000 0.080000 0
0.620000 0.080000 0
0.640000 0.080000 0
0.660000 0.080000 0
0.680000 0.080000 0
0.700000 0.080000 0
0.720000 0.080000 0
0.740000 0.080000 0
0.760000 0.080000 0
0.780000 0.080000 0
0.800000 0.080000 0
0.820000 0.080000 0
0.840000 0.080000 0
0.860000 0.080000 0
0.880000 0.080000 0
0.900000 0.080000 0
0.920000 0.080000 0
0.940000 0.080000 0
0.960000 0.080000 0
0.980000 0.080000 0
1.000000 0.080000 0
0.000000 0.100000 0
0.020000 0.100000 0
0.040000 0.100000 0
0.060000 0.100000 0
0.080000 0.100000 0
0.100000 0.100000 0
0.120000 0.100000 0
0.140000 0.100000 0
0.160000 0.100000 0
0.180000 0.100000 0
0.200000 0.100000 0
0.220000 0.100000 0
0.240000 0.100000 0
0.260000 0.100000 0
0.280000 0.100000 0
0.300000 0.100000 0
0.320000 0.100000 0
0.340000 0.100000 0
0.360000 0.100000 0
0.380000 0.100000 0
0.400000 0.100000 0
0.420000 0.100000 0
0.440000 0.100000 0
0.460000 0.100000 0
0.480000 0.100000 0
0.500000 0.100000 0
0.520000 0.100000 0
0.540000 0.100000 0
0.560000 0.100000 0
0.580000 0.100000 0
0.600000 0.100000 0
0.620000 0.100000 0
0.640000 0.100000 0
0.660000 0.100000 0
0.680000 0.100000 0
0.700000 0.100000 0
0.720000 0.100000 0
0.740000 0.100000 0
0.760000 0.100000 0
0.780000 0.100000 0
0.800000 0.100000 0
0.820000 0.100000 0
0.840000 0.100000 0
0.860000 0.100000 0
0.880000 0.100000 0
0.900000 0.100000 0
0.920000 0.100000 0
0.940000 0.100000 0
0.960000 0.100000 0
0.980000 0.100000 0
1.000000 0.100000 0
0.000000 0.120000 0
0.020000 0.120000 0
0.040000 0.120000 0
0.060000 0.120000 0
0.080000 0.120000 0
0.100000 0.120000 0
0.120000 0.120000 0
0.140000 0.120000 0
0.160000 0.120000 0
0.180000 0.120000 0
0.200000 0.120000 0
0.220000 0.120000 0
0.240000 0.120000 0
0.260000 0.120000 0
0.280000 0.120000 0
0.300000 0.120000 0
0.320000 0.120000 0
0.340000 0.120000 0
0.360000 0.120000 0
0.380000 0.120000 0
0.400000 0.120000 0
0.420000 0.120000 0
0.440000 0.120000 0
0.460000 0.120000 0
0.480000 0.120000 0
0.500000 0.120000 0
0.520000 0.120000 0
0.540000 0.120000 0
0.560000 0.120000 0
0.580000 0.120000 0
0.600000 0.120000 0
0.620000 0.120000 0
0.640000 0.120000 0
0.660000 0.120000 0
0.680000 0.120000 0
0.700000 0.120000 0
0.720000 0.120000 0
0.740000 0.120000 0
0.760000 0.120000 0
0.780000 0.120000 0
0.800000 0.120000 0
0.820000 0.120000 0
0.840000 0.120000 0
0.860000 0.120000 0
0.880000 0.120000 0
0.900000 0.120000 0
0.920000 0.120000 0
0.940000 0.120000 0
0.960000 0.120000 0
0.980000 0.120000 0
1.000000 0.120000 0
0.000000 0.140000 0
0.020000 0.140000 0
0.040000 0.140000 0
0.060000 0.140000 0
0.080000 0.140000 0
0.100000 0.140000 0
0.120000 0.140000 0
0.140000 0.140000 0
0.160000 0.140000 0
0.180000 0.140000 0
0.200000 0.140000 0
0.220000 0.140000 0
0.240000 0.140000 0
0.260000 0.140000 0
0.280000 0.140000 0
0.300000 0.140000 0
0.320000 0.140000 0
0.340000 0.140000 0
0.360000 0.140000 0
0.380000 0.140000 0
0.400000 0.140000 0
0.420000 0.140000 0
0.440000 0.140000 0
0.460000 0.140000 0
0.480000 0.140000 0
0.500000 0.140000 0
0.520000 0.140000 0
0.540000 0.140000 0
0.560000 0.140000 0
0.580000 0.140000 0
0.600000 0.140000 0
0.620000 0.140000 0
0.640000 0.140000 0
0.660000 0.140000 0
0.680000 0.140000 0
0.700000 0.140000 0
0.720000 0.140000 0
0.740000 0.140000 0
0.760000 0.140000 0
0.780000 0.140000 0
0.800000 0.140000 0
0.820000 0.140000 0
0.840000 0.140000 0
0.860000 0.140000 0
0.880000 0.140000 0
0.900000 0.140000 0
0.920000 0.140000 0
0.940000 0.140000 0
0.960000 0.140000 0
0.980000 0.140000 0
1.000000 0.140000 0
0.000000 0.160000 0
0.020000 0.160000 0
0.040000 0.160000 0
0.060000 0.160000 0
0.080000 0.160000 0
0.100000 0.160000 0
0.120000 0.160000 0
0.140000 0.160000 0
0.160000 0.160000 0
0.180000 0.160000 0
0.200000 0.160000 0
0.220000 0.160000 0
0.240000 0.160000 0
0.260000 0.160000 0
0.280000 0.160000 0
0.300000 0.160000 0
0.320000 0.160000 0
0.340000 0.160000 0
0.360000 0.160000 0
0.380000 0.160000 0
0.400000 0.160000 0
0.420000 0.160000 0
0.440000 0.160000 0
0.460000 0.160000 0
0.480000 0.160000 0
0.500000 0.160000 0
0.520000 0.160000 0
0.540000 0.160000 0
0.560000 0.160000 0
0.580000 0.160000 0
0.600000 0.160000 0
0.620000 0.160000 0
0.640000 0.160000 0
0.660000 0.160000 0
0.680000 0.160000 0
0.700000 0.160000 0
0.720000 0.160000 0
0.740000 0.160000 0
0.760000 0.160000 0
0.780000 0.160000 0
0.800000 0.160000 0
0.820000 0.160000 0
0.840000 0.160000 0
0.860000 0.160000 0
0.880000 0.160000 0
0.900000 0.160000 0
0.920000 0.160000 0
0.940000 0.160000 0
0.960000 0.160000 0
0.980000 0.160000 0
1.000000 0.160000 0
0.000000 0.180000 0
0.020000 0.180000 0
0.040000 0.180000 0
0.060000 0.180000 0
0.080000 0.180000 0
0.100000 0.180000 0
0.120000 0.180000 0
0.140000 0.180000 0
0.160000 0.180000 0
0.180000 0.180000 0
0.200000 0.180000 0
0.220000 0.180000 0
0.240000 0.180000 0
0.260000 0.180000 0
0.280000 0.180000 0
0.300000 0.180000 0
0.320000 0.180000 0
0.340000 0.180000 0
0.360000 0.180000 0
0.380000 0.180000 0
0.400000 0.180000 0
0.420000 0.180000 0
0.440000 0.180000 0
0.460000 0.180000 0
0.480000 0.180000 0
0.500000 0.180000 0
0.520000 0.180000 0
0.540000 0.180000 0
0.560000 0.180000 0
0.580000 0.180000 0
0.600000 0.180000 0
0.620000 0.180000 0
[...]
POINT_DATA 2601 

VECTORS velocity float
0.000000 0.000000 0
0.000000 0.000000 0
0.000000 0.000000 0
0.000000 0.000000 0
0.000000 0.000000 0
0.000000 0.000000 0
0.000000 0.000000 0
0.000000 0.000000 0
0.000000 0.000000 0
0.000000 0.000000 0
0.000000 0.000000 0
0.000000 0.000000 0
0.000000 0.000000 0
0.000000 0.000000 0
0.000000 0.000000 0
0.000000 0.000000 0
0.000000 0.000000 0
0.000000 0.000000 0
0.000000 0.000000 0
0.000000 0.000000 0
0.000000 0.000000 0
0.000000 0.000000 0
0.000000 0.000000 0
-0.000000 0.000000 0
-0.000000 0.000000 0
-0.000000 0.000000 0
-0.000000 0.000000 0
-0.000000 0.000000 0
-0.000000 0.000000 0
-0.000000 0.000000 0
-0.000000 0.000000 0
-0.000000 0.000000 0
-0.000000 0.000000 0
-0.000000 0.000000 0
-0.000000 0.000000 0
-0.000000 0.000000 0
-0.000000 0.000000 0
-0.000000 0.000000 0
-0.000000 0.000000 0
-0.000000 0.000000 0
-0.000000 0.000000 0
-0.000000 0.000000 0
-0.000000 0.000000 0
-0.000000 0.000000 0
-0.000000 0.000000 0
-0.000000 0.000000 0
-0.000000 0.000000 0
-0.000000 0.000000 0
-0.000000 0.000000 0
-0.000000 0.000000 0
0.000000 0.000000 0
0.000000 0.000000 0
0.000020 0.000001 0
0.000040 0.000002 0
0.000060 0.000001 0
0.000082 -0.000001 0
0.000104 -0.000006 0
0.000128 -0.000013 0
0.000154 -0.000024 0
0.000182 -0.000038 0
0.000212 -0.000057 0
0.000245 -0.000081 0
0.000281 -0.000111 0
0.000320 -0.000146 0
0.000362 -0.000188 0
0.000409 -0.000237 0
0.000459 -0.000294 0
0.000515 -0.000360 0
0.000575 -0.000436 0
0.000641 -0.000522 0
0.000713 -0.000619 0
0.000792 -0.000728 0
0.000878 -0.000852 0
0.000971 -0.000990 0
0.001073 -0.001144 0
0.001184 -0.001316 0
0.001304 -0.001507 0
0.001434 -0.001718 0
0.001575 -0.001951 0
0.001727 -0.002205 0
0.001889 -0.002482 0
0.002062 -0.002782 0
0.002245 -0.003102 0
0.002436 -0.003440 0
0.002632 -0.003793 0
0.002830 -0.004152 0
0.003025 -0.004509 0
0.003210 -0.004852 0
0.003376 -0.005164 0
0.003513 -0.005426 0
0.003609 -0.005616 0
0.003651 -0.005711 0
0.003627 -0.005687 0
0.003524 -0.005525 0
0.003336 -0.005210 0
0.003059 -0.004736 0
0.002695 -0.004109 0
0.002251 -0.003345 0
0.001743 -0.002468 0
0.001186 -0.001512 0
0.000600 -0.000509 0
0.000000 0.000000 0
0.000000 0.000000 0
0.000039 0.000003 0
0.000079 0.000004 0
0.000120 0.000004 0
0.000162 -0.000000 0
0.000207 -0.000009 0
0.000255 -0.000023 0
0.000307 -0.000044 0
0.000362 -0.000072 0
0.000422 -0.000110 0
0.000487 -0.000157 0
0.000558 -0.000215 0
0.000636 -0.000285 0
0.000720 -0.000368 0
0.000813 -0.000466 0
0.000914 -0.000580 0
0.001024 -0.000710 0
0.001144 -0.000860 0
0.001275 -0.001030 0
0.001419 -0.001223 0
0.001575 -0.001441 0
0.001745 -0.001686 0
0.001931 -0.001960 0
0.002133 -0.002266 0
0.002352 -0.002607 0
0.002590 -0.002985 0
0.002848 -0.003403 0
0.003127 -0.003863 0
0.003427 -0.004368 0
0.003749 -0.004917 0
0.004092 -0.005510 0
0.004453 -0.006145 0
0.004831 -0.006817 0
0.005220 -0.007517 0
0.005614 -0.008233 0
0.006002 -0.008947 0
0.006372 -0.009633 0
0.006706 -0.010262 0
0.006984 -0.010795 0
0.007182 -0.011188 0
0.007275 -0.011394 0
0.007237 -0.011366 0
0.007045 -0.011062 0
0.006680 -0.010450 0
0.006135 -0.009518 0
0.005412 -0.008271 0
0.004528 -0.006742 0
0.003509 -0.004982 0
0.002390 -0.003054 0
0.001209 -0.001029 0
0.000000 0.000000 0
0.000000 0.000000 0
0.000058 0.000006 0
0.000117 0.000010 0
0.000178 0.000010 0
0.000241 0.000005 0
0.000308 -0.000006 0
0.000379 -0.000026 0
0.000455 -0.000056 0
0.000537 -0.000097 0
0.000626 -0.000152 0
0.000723 -0.000221 0
0.000829 -0.000307 0
0.000944 -0.000411 0
0.001070 -0.000534 0
0.001208 -0.000679 0
0.001358 -0.000847 0
0.001522 -0.001041 0
0.001701 -0.001263 0
0.001896 -0.001515 0
0.002108 -0.001801 0
0.002340 -0.002123 0
0.002593 -0.002485 0
0.002867 -0.002891 0
0.003166 -0.003344 0
0.003491 -0.003848 0
0.003843 -0.004407 0
0.004225 -0.005025 0
0.004637 -0.005706 0
0.005080 -0.006452 0
0.005555 -0.007264 0
0.006061 -0.008142 0
0.006596 -0.009083 0
0.007155 -0.010081 0
0.007733 -0.011123 0
0.008318 -0.012191 0
0.008898 -0.013260 0
0.009452 -0.014295 0
0.009958 -0.015250 0
0.010385 -0.016071 0
0.010698 -0.016691 0
0.010858 -0.017040 0
0.010826 -0.017043 0
0.010563 -0.016633 0
0.010042 -0.015757 0
0.009245 -0.014390 0
0.008176 -0.012538 0
0.006854 -0.010243 0
0.005321 -0.007582 0
0.003629 -0.004654 0
0.001837 -0.001568 0
0.000000 0.000000 0
0.000000 0.000000 0
0.000076 0.000010 0
0.000153 0.000018 0
0.000233 0.000022 0
0.000316 0.000018 0
0.000404 0.000005 0
0.000497 -0.000019 0
0.000597 -0.000056 0
0.000706 -0.000109 0
0.000823 -0.000179 0
0.000951 -0.000269 0
0.001090 -0.000381 0
0.001243 -0.000516 0
0.001409 -0.000678 0
0.001590 -0.000867 0
0.001788 -0.001088 0
0.002004 -0.001342 0
0.002239 -0.001633 0
0.002496 -0.001964 0
0.002776 -0.002339 0
0.003080 -0.002762 0
0.003412 -0.003236 0
0.003773 -0.003767 0
0.004165 -0.004360 0
0.004590 -0.005020 0
0.005051 -0.005752 0
0.005550 -0.006561 0
0.006089 -0.007451 0
0.006668 -0.008428 0
0.007289 -0.009492 0
0.007951 -0.010643 0
0.008651 -0.011879 0
0.009384 -0.013192 0
0.010143 -0.014567 0
0.010915 -0.015983 0
0.011683 -0.017408 0
0.012424 -0.018797 0
0.013107 -0.020094 0
0.013693 -0.021226 0
0.014136 -0.022107 0
0.014385 -0.022639 0
0.014384 -0.022721 0
0.014081 -0.022254 0
0.013430 -0.021161 0
0.012405 -0.019394 0
0.011003 -0.016953 0
0.009249 -0.013890 0
0.007195 -0.010304 0
0.004915 -0.006336 0
0.002490 -0.002137 0
0.000000 0.000000 0
0.000000 0.000000 0
0.000093 0.000017 0
0.000187 0.000032 0
0.000285 0.000040 0
0.000386 0.000040 0
0.000494 0.000028 0
0.000609 0.000002 0
0.000732 -0.000041 0
0.000865 -0.000103 0
0.001010 -0.000187 0
0.001168 -0.000296 0
0.001339 -0.000431 0
0.001527 -0.000596 0
0.001732 -0.000793 0
0.001955 -0.001025 0
0.002199 -0.001295 0
0.002466 -0.001607 0
0.002756 -0.001963 0
0.003072 -0.002369 0
0.003416 -0.002828 0
0.003790 -0.003345 0
0.004197 -0.003925 0
0.004639 -0.004575 0
0.005119 -0.005300 0
0.005640 -0.006107 0
0.006203 -0.007001 0
0.006813 -0.007990 0
0.007471 -0.009079 0
0.008178 -0.010272 0
0.008936 -0.011575 0
0.009745 -0.012986 0
0.010601 -0.014504 0
0.011499 -0.016121 0
0.012432 -0.017820 0
0.013385 -0.019579 0
0.014339 -0.021360 0
0.015267 -0.023112 0
0.016132 -0.024768 0
0.016889 -0.026239 0
0.017482 -0.027420 0
0.017844 -0.028186 0
0.017905 -0.028404 0
0.017594 -0.027943 0
0.016847 -0.026688 0
0.015623 -0.024566 0
0.013908 -0.021560 0
0.011729 -0.017724 0
0.009148 -0.013186 0
0.006261 -0.008123 0
0.003176 -0.002743 0
0.000000 0.000000 0
0.000000 0.000000 0
0.000108 0.000027 0
0.000219 0.000051 0
0.000332 0.000067 0
0.000451 0.000073 0
0.000577 0.000065 0
0.000712 0.000040 0
0.000857 -0.000006 0
0.001014 -0.000075 0
0.001185 -0.000170 0
0.001371 -0.000295 0
0.001573 -0.000452 0
0.001795 -0.000644 0
0.002037 -0.000873 0
0.002301 -0.001145 0
0.002589 -0.001461 0
0.002904 -0.001826 0
0.003246 -0.002244 0
0.003618 -0.002719 0
0.004023 -0.003257 0
0.004464 -0.003863 0
0.004942 -0.004543 0
0.005461 -0.005303 0
0.006024 -0.006151 0
0.006634 -0.007095 0
0.007293 -0.008141 0
0.008006 -0.009297 0
0.008775 -0.010571 0
0.009602 -0.011969 0
0.010488 -0.013495 0
0.011433 -0.015152 0
0.012436 -0.016938 0
0.013490 -0.018846 0
0.014589 -0.020861 0
0.015716 -0.022957 0
0.016852 -0.025095 0
0.017967 -0.027219 0
0.019021 -0.029253 0
0.019961 -0.031095 0
0.020722 -0.032620 0
0.021225 -0.033676 0
0.021382 -0.034098 0
0.021101 -0.033712 0
0.020297 -0.032363 0
0.018907 -0.029938 0
0.016904 -0.026396 0
0.014308 -0.021787 0
0.011194 -0.016260 0
0.007678 -0.010040 0
0.003900 -0.003394 0
0.000000 0.000000 0
0.000000 0.000000 0
0.000122 0.000041 0
0.000247 0.000077 0
0.000375 0.000106 0
0.000510 0.000121 0
0.000653 0.000120 0
0.000805 0.000098 0
0.000971 0.000053 0
0.001150 -0.000020 0
0.001345 -0.000124 0
0.001558 -0.000262 0
0.001790 -0.000437 0
0.002044 -0.000653 0
0.002322 -0.000913 0
0.002624 -0.001221 0
0.002955 -0.001579 0
0.003315 -0.001994 0
0.003707 -0.002469 0
0.004133 -0.003009 0
0.004596 -0.003619 0
0.005098 -0.004307 0
0.005644 -0.005079 0
0.006235 -0.005942 0
0.006875 -0.006904 0
0.007568 -0.007973 0
0.008317 -0.009160 0
0.009126 -0.010471 0
0.009997 -0.011917 0
0.010934 -0.013504 0
0.011939 -0.015240 0
0.013011 -0.017129 0
0.014150 -0.019169 0
0.015351 -0.021357 0
0.016607 -0.023677 0
0.017902 -0.026106 0
0.019216 -0.028602 0
0.020519 -0.031108 0
0.021766 -0.033540 0
0.022901 -0.035786 0
0.023849 -0.037702 0
0.024520 -0.039110 0
0.024808 -0.039808 0
0.024598 -0.039577 0
0.023780 -0.038210 0
0.022263 -0.035545 0
0.019999 -0.031502 0
0.017000 -0.026120 0
0.013346 -0.019564 0
0.009176 -0.012111 0
0.004668 -0.004100 0
0.000000 0.000000 0
0.000000 0.000000 0
0.000134 0.000059 0
0.000271 0.000113 0
0.000412 0.000157 0
0.000560 0.000186 0
0.000718 0.000195 0
0.000888 0.000181 0
0.001071 0.000139 0
0.001271 0.000066 0
0.001488 -0.000044 0
0.001726 -0.000192 0
0.001987 -0.000383 0
0.002271 -0.000619 0
0.002583 -0.000906 0
0.002922 -0.001246 0
0.003293 -0.001644 0
0.003696 -0.002104 0
0.004135 -0.002631 0
0.004612 -0.003230 0
0.005130 -0.003908 0
0.005692 -0.004671 0
0.006300 -0.005527 0
0.006958 -0.006484 0
0.007671 -0.007551 0
0.008441 -0.008736 0
0.009273 -0.010051 0
0.010170 -0.011505 0
0.011136 -0.013109 0
0.012174 -0.014873 0
0.013288 -0.016804 0
0.014478 -0.018909 0
0.015744 -0.021191 0
0.017083 -0.023646 0
0.018487 -0.026264 0
0.019943 -0.029020 0
0.021431 -0.031877 0
0.022919 -0.034775 0
0.024364 -0.037626 0
0.025704 -0.040310 0
0.026859 -0.042665 0
0.027725 -0.044490 0
0.028179 -0.045542 0
0.028083 -0.045553 0
0.027296 -0.044254 0
0.025695 -0.041420 0
0.023203 -0.036920 0
0.019816 -0.030766 0
0.015616 -0.023137 0
0.010767 -0.014363 0
0.005486 -0.004870 0
0.000000 0.000000 0
0.000000 0.000000 0
0.000144 0.000082 0
0.000290 0.000158 0
0.000442 0.000223 0
0.000602 0.000270 0
0.000773 0.000295 0
0.000957 0.000292 0
0.001157 0.000258 0
0.001375 0.000187 0
0.001613 0.000076 0
0.001875 -0.000079 0
0.002161 -0.000282 0
0.002475 -0.000537 0
0.002818 -0.000847 0
0.003193 -0.001216 0
0.003602 -0.001649 0
0.004047 -0.002150 0
0.004531 -0.002725 0
0.005056 -0.003378 0
0.005625 -0.004118 0
0.006242 -0.004950 0
0.006909 -0.005883 0
0.007631 -0.006925 0
0.008411 -0.008087 0
0.009253 -0.009378 0
0.010161 -0.010810 0
0.011139 -0.012395 0
0.012192 -0.014145 0
0.013325 -0.016071 0
0.014539 -0.018183 0
0.015837 -0.020492 0
0.017221 -0.023002 0
0.018688 -0.025714 0
0.020232 -0.028620 0
0.021842 -0.031701 0
0.023499 -0.034920 0
0.025172 -0.038220 0
0.026818 -0.041512 0
0.028373 -0.044668 0
0.029750 -0.047514 0
0.030837 -0.049822 0
0.031493 -0.051311 0
0.031554 -0.051656 0
0.030846 -0.050520 0
0.029207 -0.047599 0
0.026525 -0.042693 0
0.022768 -0.035772 0
0.018017 -0.027020 0
0.012460 -0.016827 0
0.006361 -0.005715 0
0.000000 0.000000 0
0.000000 0.000000 0
0.000151 0.000111 0
0.000304 0.000216 0
0.000464 0.000306 0
0.000633 0.000377 0
0.000814 0.000422 0
0.001011 0.000436 0
0.001225 0.000414 0
0.001460 0.000350 0
0.001718 0.000240 0
0.002001 0.000082 0
0.002312 -0.000131 0
0.002653 -0.000400 0
0.003027 -0.000730 0
0.003435 -0.001125 0
0.003880 -0.001590 0
0.004365 -0.002128 0
0.004891 -0.002746 0
0.005462 -0.003449 0
0.006081 -0.004244 0
0.006750 -0.005138 0
0.007473 -0.006141 0
0.008254 -0.007261 0
0.009096 -0.008509 0
0.010005 -0.009897 0
0.010983 -0.011436 0
0.012037 -0.013140 0
0.013171 -0.015023 0
0.014389 -0.017098 0
0.015696 -0.019380 0
0.017095 -0.021879 0
0.018588 -0.024606 0
0.020175 -0.027564 0
0.021851 -0.030751 0
0.023608 -0.034152 0
0.025429 -0.037736 0
0.027285 -0.041449 0
0.029133 -0.045202 0
0.030909 -0.048865 0
0.032524 -0.052252 0
0.033855 -0.055112 0
0.034746 -0.057125 0
0.035007 -0.057905 0
0.034428 -0.057036 0
0.032801 -0.054120 0
0.029969 -0.048869 0
0.025866 -0.041190 0
0.020562 -0.031262 0
0.014267 -0.019535 0
0.007297 -0.006646 0
0.000000 0.000000 0
0.000000 0.000000 0
0.000154 0.000147 0
0.000312 0.000287 0
0.000477 0.000410 0
0.000653 0.000511 0
0.000842 0.000582 0
0.001049 0.000617 0
0.001275 0.000611 0
0.001524 0.000558 0
0.001799 0.000455 0
0.002103 0.000296 0
0.002437 0.000078 0
0.002804 -0.000203 0
0.003206 -0.000550 0
0.003646 -0.000968 0
0.004126 -0.001461 0
0.004648 -0.002033 0
0.005216 -0.002690 0
0.005831 -0.003437 0
0.006496 -0.004283 0
0.007215 -0.005234 0
0.007991 -0.006300 0
0.008828 -0.007490 0
0.009729 -0.008816 0
0.010700 -0.010291 0
0.011745 -0.011927 0
0.012869 -0.013740 0
0.014077 -0.015744 0
0.015375 -0.017958 0
0.016768 -0.020396 0
0.018259 -0.023074 0
0.019854 -0.026006 0
0.021553 -0.029202 0
0.023355 -0.032663 0
0.025252 -0.036382 0
0.027231 -0.040333 0
0.029267 -0.044469 0
0.031318 -0.048704 0
0.033321 -0.052908 0
0.035186 -0.056887 0
0.036782 -0.060370 0
0.037940 -0.062995 0
0.038442 -0.064317 0
0.038041 -0.063828 0
0.036479 -0.061021 0
0.033541 -0.055495 0
0.029118 -0.047073 0
0.023260 -0.035912 0
0.016197 -0.022523 0
0.008302 -0.007678 0
0.000000 0.000000 0
0.000000 0.000000 0
0.000155 0.000192 0
0.000314 0.000374 0
0.000481 0.000538 0
0.000660 0.000676 0
0.000854 0.000779 0
0.001068 0.000842 0
0.001304 0.000857 0
0.001565 0.000819 0
0.001856 0.000725 0
0.002177 0.000569 0
0.002533 0.000349 0
0.002924 0.000059 0
0.003354 -0.000303 0
0.003825 -0.000740 0
0.004338 -0.001258 0
0.004898 -0.001860 0
0.005505 -0.002553 0
0.006162 -0.003341 0
0.006873 -0.004232 0
0.007639 -0.005235 0
0.008466 -0.006358 0
0.009356 -0.007611 0
0.010314 -0.009008 0
0.011344 -0.010561 0
0.012451 -0.012285 0
0.013640 -0.014196 0
0.014918 -0.016312 0
0.016290 -0.018652 0
0.017762 -0.021236 0
0.019341 -0.024083 0
0.021030 -0.027210 0
0.022834 -0.030634 0
0.024754 -0.034363 0
0.026785 -0.038397 0
0.028918 -0.042718 0
0.031129 -0.047287 0
0.033382 -0.052025 0
0.035616 -0.056805 0
0.037740 -0.061427 0
0.039620 -0.065602 0
0.041072 -0.068934 0
0.041856 -0.070909 0
0.041682 -0.070923 0
0.040238 -0.068342 0
0.037245 -0.062624 0
0.032533 -0.053481 0
0.026122 -0.041027 0
0.018259 -0.025832 0
0.009380 -0.008825 0
0.000000 0.000000 0
0.000000 0.000000 0
0.000151 0.000245 0
0.000307 0.000480 0
0.000473 0.000693 0
0.000651 0.000876 0
0.000848 0.001019 0
0.001066 0.001114 0
0.001309 0.001157 0
0.001581 0.001139 0
0.001884 0.001058 0
0.002223 0.000909 0
0.002598 0.000689 0
0.003013 0.000393 0
0.003469 0.000019 0
0.003970 -0.000436 0
0.004517 -0.000976 0
0.005112 -0.001606 0
0.005757 -0.002331 0
0.006456 -0.003157 0
0.007211 -0.004090 0
0.008025 -0.005139 0
0.008901 -0.006313 0
0.009842 -0.007624 0
0.010854 -0.009084 0
0.011940 -0.010708 0
0.013106 -0.012511 0
0.014358 -0.014512 0
0.015701 -0.016730 0
0.017143 -0.019187 0
0.018690 -0.021906 0
0.020350 -0.024911 0
0.022128 -0.028224 0
0.024032 -0.031868 0
0.026063 -0.035859 0
0.028222 -0.040205 0
0.030502 -0.044900 0
0.032885 -0.049911 0
0.035338 -0.055172 0
0.037805 -0.060560 0
0.040195 -0.065876 0
0.042373 -0.070817 0
0.044145 -0.074950 0
0.045246 -0.077697 0
0.045347 -0.078346 0
0.044076 -0.076119 0
0.041079 -0.070307 0
0.036113 -0.060474 0
0.029156 -0.046665 0
0.020462 -0.029507 0
0.010537 -0.010102 0
0.000000 0.000000 0
0.000000 0.000000 0
0.000144 0.000310 0
0.000292 0.000608 0
0.000452 0.000880 0
0.000626 0.001117 0
0.000821 0.001307 0
0.001040 0.001444 0
0.001288 0.001518 0
0.001567 0.001526 0
0.001882 0.001462 0
0.002236 0.001323 0
0.002630 0.001105 0
0.003067 0.000805 0
0.003550 0.000421 0
0.004080 -0.000050 0
0.004659 -0.000611 0
0.005290 -0.001267 0
0.005975 -0.002022 0
0.006715 -0.002881 0
0.007514 -0.003853 0
0.008374 -0.004944 0
0.009298 -0.006166 0
0.010290 -0.007529 0
0.011354 -0.009046 0
0.012496 -0.010734 0
0.013719 -0.012609 0
0.015030 -0.014691 0
0.016436 -0.017002 0
0.017945 -0.019567 0
0.019563 -0.022412 0
0.021299 -0.025565 0
0.023162 -0.029056 0
0.025159 -0.032912 0
0.027297 -0.037159 0
0.029578 -0.041815 0
0.032000 -0.046884 0
0.034549 -0.052348 0
0.037199 -0.058151 0
0.039897 -0.064180 0
0.042558 -0.070240 0
0.045046 -0.076018 0
0.047157 -0.081051 0
0.048608 -0.084694 0
0.049029 -0.086122 0
0.047986 -0.084392 0
0.045039 -0.078597 0
0.039860 -0.068115 0
0.032365 -0.052889 0
0.022812 -0.033592 0
0.011778 -0.011529 0
0.000000 0.000000 0
0.000000 0.000000 0
0.000131 0.000388 0
0.000267 0.000762 0
0.000416 0.001105 0
0.000582 0.001406 0
0.000771 0.001653 0
0.000988 0.001837 0
0.001237 0.001951 0
0.001522 0.001989 0
0.001847 0.001945 0
0.002213 0.001818 0
0.002625 0.001605 0
0.003085 0.001302 0
0.003593 0.000910 0
0.004153 0.000424 0
0.004765 -0.000157 0
0.005432 -0.000838 0
0.006156 -0.001621 0
0.006939 -0.002513 0
0.007782 -0.003520 0
0.008688 -0.004651 0
0.009661 -0.005915 0
0.010704 -0.007325 0
0.011821 -0.008895 0
0.013017 -0.010640 0
0.014296 -0.012580 0
0.015666 -0.014736 0
0.017133 -0.017132 0
0.018705 -0.019796 0
0.020392 -0.022758 0
0.022202 -0.026051 0
0.024145 -0.029710 0
0.026232 -0.033772 0
0.028470 -0.038269 0
0.030868 -0.043232 0
0.033426 -0.048678 0
0.036136 -0.054602 0
0.038978 -0.060964 0
0.041906 -0.067666 0
0.044838 -0.074520 0
0.047642 -0.081209 0
0.050109 -0.087242 0
0.051938 -0.091910 0
0.052721 -0.094269 0
0.051958 -0.093194 0
0.049117 -0.087545 0
0.043768 -0.076468 0
0.035750 -0.059764 0
0.025311 -0.038138 0
0.013103 -0.013122 0
0.000000 0.000000 0
0.000000 0.000000 0
0.000111 0.000482 0
0.000230 0.000946 0
0.000362 0.001374 0
0.000515 0.001752 0
0.000694 0.002066 0
0.000905 0.002306 0
0.001152 0.002465 0
0.001440 0.002537 0
0.001773 0.002518 0
0.002152 0.002406 0
0.002581 0.002198 0
0.003062 0.001894 0
0.003597 0.001492 0
0.004187 0.000991 0
0.004833 0.000390 0
0.005538 -0.000314 0
0.006303 -0.001125 0
0.007128 -0.002048 0
0.008018 -0.003089 0
0.008972 -0.004257 0
0.009995 -0.005562 0
0.011090 -0.007015 0
0.012260 -0.008632 0
0.013511 -0.010430 0
0.014847 -0.012428 0
0.016275 -0.014651 0
0.017802 -0.017124 0
0.019437 -0.019879 0
0.021190 -0.022950 0
0.023071 -0.026374 0
0.025092 -0.030194 0
0.027264 -0.034453 0
0.029599 -0.039195 0
0.032108 -0.044461 0
0.034796 -0.050284 0
0.037662 -0.056676 0
0.040691 -0.063615 0
0.043843 -0.071019 0
0.047046 -0.078715 0
0.050169 -0.086387 0
0.053003 -0.093524 0
0.055232 -0.099351 0
0.056412 -0.102803 0
0.055977 -0.102555 0
0.053297 -0.097198 0
0.047825 -0.085595 0
0.039304 -0.067356 0
0.027956 -0.043196 0
0.014513 -0.014901 0
0.000000 0.000000 0
0.000000 0.000000 0
0.000086 0.000595 0
0.000179 0.001167 0
0.000289 0.001697 0
0.000423 0.002165 0
0.000587 0.002557 0
0.000787 0.002863 0
0.001029 0.003074 0
0.001318 0.003185 0
0.001656 0.003193 0
0.002047 0.003096 0
0.002493 0.002895 0
0.002996 0.002588 0
0.003558 0.002176 0
0.004180 0.001660 0
0.004862 0.001038 0
0.005607 0.000309 0
0.006414 -0.000531 0
0.007286 -0.001485 0
0.008223 -0.002559 0
0.009229 -0.003763 0
0.010304 -0.005105 0
0.011453 -0.006598 0
0.012678 -0.008259 0
0.013985 -0.010104 0
0.015379 -0.012156 0
0.016866 -0.014439 0
0.018454 -0.016983 0
0.020152 -0.019821 0
0.021971 -0.022992 0
0.023921 -0.026540 0
0.026017 -0.030511 0
0.028272 -0.034959 0
0.030700 -0.039939 0
0.033316 -0.045505 0
0.036129 -0.051705 0
0.039144 -0.058571 0
0.042352 -0.066101 0
0.045723 -0.074236 0
0.049190 -0.082821 0
0.052631 -0.091550 0
0.055838 -0.099893 0
0.058483 -0.107020 0
0.060089 -0.111737 0
0.060026 -0.112502 0
0.057560 -0.107600 0
0.052013 -0.095556 0
0.043012 -0.075726 0
0.030741 -0.048815 0
0.016006 -0.016886 0
0.000000 0.000000 0
0.000000 0.000000 0
0.000051 0.000731 0
0.000112 0.001433 0
0.000192 0.002083 0
0.000300 0.002658 0
0.000443 0.003142 0
0.000629 0.003524 0
0.000862 0.003794 0
0.001148 0.003948 0
0.001490 0.003985 0
0.001892 0.003904 0
0.002355 0.003707 0
0.002882 0.003396 0
0.003473 0.002972 0
0.004128 0.002437 0
0.004850 0.001792 0
0.005637 0.001036 0
0.006491 0.000167 0
0.007412 -0.000819 0
0.008402 -0.001928 0
0.009461 -0.003166 0
0.010593 -0.004544 0
0.011799 -0.006076 0
0.013082 -0.007777 0
0.014449 -0.009666 0
0.015903 -0.011766 0
0.017451 -0.014104 0
0.019101 -0.016711 0
0.020863 -0.019626 0
0.022748 -0.022889 0
0.024768 -0.026551 0
0.026938 -0.030665 0
0.029273 -0.035295 0
0.031791 -0.040505 0
0.034509 -0.046366 0
0.037441 -0.052941 0
0.040598 -0.060284 0
0.043978 -0.068418 0
0.047559 -0.077311 0
0.051285 -0.086831 0
0.055039 -0.096687 0
0.058617 -0.106343 0
0.061685 -0.114913 0