# vtk DataFile Version 2.0
generated by CFD-lab course output (written by Tobias Neckel) 
ASCII

DATASET STRUCTURED_GRID
DIMENSIONS  51 51 1 
POINTS 2601 float

0.000000 0.000000 0
0.020000 0.000000 0
0.040000 0.000000 0
0.060000 0.000000 0
0.080000 0.000000 0
0.100000 0.000000 0
0.120000 0.000000 0
0.140000 0.000000 0
0.160000 0.000000 0
0.180000 0.000000 0
0.200000 0.000000 0
0.220000 0.000000 0
0.240000 0.000000 0
0.260000 0.000000 0
0.280000 0.000000 0
0.300000 0.000000 0
0.320000 0.000000 0
0.340000 0.000000 0
0.360000 0.000000 0
0.380000 0.000000 0
0.400000 0.000000 0
0.420000 0.000000 0
0.440000 0.000000 0
0.460000 0.000000 0
0.480000 0.000000 0
0.500000 0.000000 0
0.520000 0.000000 0
0.540000 0.000000 0
0.560000 0.000000 0
0.580000 0.000000 0
0.600000 0.000000 0
0.620000 0.000000 0
0.640000 0.000000 0
0.660000 0.000000 0
0.680000 0.000000 0
0.700000 0.000000 0
0.720000 0.000000 0
0.740000 0.000000 0
0.760000 0.000000 0
0.780000 0.000000 0
0.800000 0.000000 0
0.820000 0.000000 0
0.840000 0.000000 0
0.860000 0.000000 0
0.880000 0.000000 0
0.900000 0.000000 0
0.920000 0.000000 0
0.940000 0.000000 0
0.960000 0.000000 0
0.980000 0.000000 0
1.000000 0.000000 0
0.000000 0.020000 0
0.020000 0.020000 0
0.040000 0.020000 0
0.060000 0.020000 0
0.080000 0.020000 0
0.100000 0.020000 0
0.120000 0.020000 0
0.140000 0.020000 0
0.160000 0.020000 0
0.180000 0.020000 0
0.200000 0.020000 0
0.220000 0.020000 0
0.240000 0.020000 0
0.260000 0.020000 0
0.280000 0.020000 0
0.300000 0.020000 0
0.320000 0.020000 0
0.340000 0.020000 0
0.360000 0.020000 0
0.380000 0.020000 0
0.400000 0.020000 0
0.420000 0.020000 0
0.440000 0.020000 0
0.460000 0.020000 0
0.480000 0.020000 0
0.500000 0.020000 0
0.520000 0.020000 0
0.540000 0.020000 0
0.560000 0.020000 0
0.580000 0.020000 0
0.600000 0.020000 0
0.620000 0.020000 0
0.640000 0.020000 0
0.660000 0.020000 0
0.680000 0.020000 0
0.700000 0.020000 0
0.720000 0.020000 0
0.740000 0.020000 0
0.760000 0.020000 0
0.780000 0.020000 0
0.800000 0.020000 0
0.820000 0.020000 0
0.840000 0.020000 0
0.860000 0.020000 0
0.880000 0.020000 0
0.900000 0.020000 0
0.920000 0.020000 0
0.940000 0.020000 0
0.960000 0.020000 0
0.980000 0.020000 0
1.000000 0.020000 0
0.000000 0.040000 0
0.020000 0.040000 0
0.040000 0.040000 0
0.060000 0.040000 0
0.080000 0.040000 0
0.100000 0.040000 0
0.120000 0.040000 0
0.140000 0.040000 0
0.160000 0.040000 0
0.180000 0.040000 0
0.200000 0.040000 0
0.220000 0.040000 0
0.240000 0.040000 0
0.260000 0.040000 0
0.280000 0.040000 0
0.300000 0.040000 0
0.320000 0.040000 0
0.340000 0.040000 0
0.360000 0.040000 0
0.380000 0.040000 0
0.400000 0.040000 0
0.420000 0.040000 0
0.440000 0.040000 0
0.460000 0.040000 0
0.480000 0.040000 0
0.500000 0.040000 0
0.520000 0.040000 0
0.540000 0.040000 0
0.560000 0.040000 0
0.580000 0.040000 0
0.600000 0.040000 0
0.620000 0.040000 0
0.640000 0.040000 0
0.660000 0.040000 0
0.680000 0.040000 0
0.700000 0.040000 0
0.720000 0.040000 0
0.740000 0.040000 0
0.760000 0.040000 0
0.780000 0.040000 0
0.800000 0.040000 0
0.820000 0.040000 0
0.840000 0.040000 0
0.860000 0.040000 0
0.880000 0.040000 0
0.900000 0.040000 0
0.920000 0.040000 0
0.940000 0.040000 0
0.960000 0.040000 0
0.980000 0.040000 0
1.000000 0.040000 0
0.000000 0.060000 0
0.020000 0.060000 0
0.040000 0.060000 0
0.060000 0.060000 0
0.080000 0.060000 0
0.100000 0.060000 0
0.120000 0.060000 0
0.140000 0.060000 0
0.160000 0.060000 0
0.180000 0.060000 0
0.200000 0.060000 0
0.220000 0.060000 0
0.240000 0.060000 0
0.260000 0.060000 0
0.280000 0.060000 0
0.300000 0.060000 0
0.320000 0.060000 0
0.340000 0.060000 0
0.360000 0.060000 0
0.380000 0.060000 0
0.400000 0.060000 0
0.420000 0.060000 0
0.440000 0.060000 0
0.460000 0.060000 0
0.480000 0.060000 0
0.500000 0.060000 0
0.520000 0.060000 0
0.540000 0.060000 0
0.560000 0.060000 0
0.580000 0.060000 0
0.600000 0.060000 0
0.620000 0.060000 0
0.640000 0.060000 0
0.660000 0.060000 0
0.680000 0.060000 0
0.700000 0.060000 0
0.720000 0.060000 0
0.740000 0.060000 0
0.760000 0.060000 0
0.780000 0.060000 0
0.800000 0.060000 0
0.820000 0.060000 0
0.840000 0.060000 0
0.860000 0.060000 0
0.880000 0.060000 0
0.900000 0.060000 0
0.920000 0.060000 0
0.940000 0.060000 0
0.960000 0.060000 0
0.980000 0.060000 0
1.000000 0.060000 0
0.000000 0.080000 0
0.020000 0.080000 0
0.040000 0.080000 0
0.060000 0.080000 0
0.080000 0.080000 0
0.100000 0.080000 0
0.120000 0.080000 0
0.140000 0.080000 0
0.160000 0.080000 0
0.180000 0.080000 0
0.200000 0.080000 0
0.220000 0.080000 0
0.240000 0.080000 0
0.260000 0.080000 0
0.280000 0.080000 0
0.300000 0.080000 0
0.320000 0.080000 0
0.340000 0.080000 0
0.360000 0.080000 0
0.380000 0.080000 0
0.400000 0.080000 0
0.420000 0.080000 0
0.440000 0.080000 0
0.460000 0.080000 0
0.480000 0.080000 0
0.500000 0.080000 0
0.520000 0.080000 0
0.540000 0.080000 0
0.560000 0.080000 0
0.580000 0.080000 0
0.600000 0.080000 0
0.620000 0.080000 0
0.640000 0.080000 0
0.660000 0.080000 0
0.680000 0.080000 0
0.700000 0.080000 0
0.720000 0.080000 0
0.740000 0.080000 0
0.760000 0.080000 0
0.780000 0.080000 0
0.800000 0.080000 0
0.820000 0.080000 0
0.840000 0.080000 0
0.860000 0.080000 0
0.880000 0.080000 0
0.900000 0.080000 0
0.920000 0.080000 0
0.940000 0.080000 0
0.960000 0.080000 0
0.980000 0.080000 0
1.000000 0.080000 0
0.000000 0.100000 0
0.020000 0.100000 0
0.040000 0.100000 0
0.060000 0.100000 0
0.080000 0.100000 0
0.100000 0.100000 0
0.120000 0.100000 0
0.140000 0.100000 0
0.160000 0.100000 0
0.180000 0.100000 0
0.200000 0.100000 0
0.220000 0.100000 0
0.240000 0.100000 0
0.260000 0.100000 0
0.280000 0.100000 0
0.300000 0.100000 0
0.320000 0.100000 0
0.340000 0.100000 0
0.360000 0.100000 0
0.380000 0.100000 0
0.400000 0.100000 0
0.420000 0.100000 0
0.440000 0.100000 0
0.460000 0.100000 0
0.480000 0.100000 0
0.500000 0.100000 0
0.520000 0.100000 0
0.540000 0.100000 0
0.560000 0.100000 0
0.580000 0.100000 0
0.600000 0.100000 0
0.620000 0.100000 0
0.640000 0.100000 0
0.660000 0.100000 0
0.680000 0.100000 0
0.700000 0.100000 0
0.720000 0.100000 0
0.740000 0.100000 0
0.760000 0.100000 0
0.780000 0.100000 0
0.800000 0.100000 0
0.820000 0.100000 0
0.840000 0.100000 0
0.860000 0.100000 0
0.880000 0.100000 0
0.900000 0.100000 0
0.920000 0.100000 0
0.940000 0.100000 0
0.960000 0.100000 0
0.980000 0.100000 0
1.000000 0.100000 0
0.000000 0.120000 0
0.020000 0.120000 0
0.040000 0.120000 0
0.060000 0.120000 0
0.080000 0.120000 0
0.100000 0.120000 0
0.120000 0.120000 0
0.140000 0.120000 0
0.160000 0.120000 0
0.180000 0.120000 0
0.200000 0.120000 0
0.220000 0.120000 0
0.240000 0.120000 0
0.260000 0.120000 0
0.280000 0.120000 0
0.300000 0.120000 0
0.320000 0.120000 0
0.340000 0.120000 0
0.360000 0.120000 0
0.380000 0.120000 0
0.400000 0.120000 0
0.420000 0.120000 0
0.440000 0.120000 0
0.460000 0.120000 0
0.480000 0.120000 0
0.500000 0.120000 0
0.520000 0.120000 0
0.540000 0.120000 0
0.560000 0.120000 0
0.580000 0.120000 0
0.600000 0.120000 0
0.620000 0.120000 0
0.640000 0.120000 0
0.660000 0.120000 0
0.680000 0.120000 0
0.700000 0.120000 0
0.720000 0.120000 0
0.740000 0.120000 0
0.760000 0.120000 0
0.780000 0.120000 0
0.800000 0.120000 0
0.820000 0.120000 0
0.840000 0.120000 0
0.860000 0.120000 0
0.880000 0.120000 0
0.900000 0.120000 0
0.920000 0.120000 0
0.940000 0.120000 0
0.960000 0.120000 0
0.980000 0.120000 0
1.000000 0.120000 0
0.000000 0.140000 0
0.020000 0.140000 0
0.040000 0.140000 0
0.060000 0.140000 0
0.080000 0.140000 0
0.100000 0.140000 0
0.120000 0.140000 0
0.140000 0.140000 0
0.160000 0.140000 0
0.180000 0.140000 0
0.200000 0.140000 0
0.220000 0.140000 0
0.240000 0.140000 0
0.260000 0.140000 0
0.280000 0.140000 0
0.300000 0.140000 0
0.320000 0.140000 0
0.340000 0.140000 0
0.360000 0.140000 0
0.380000 0.140000 0
0.400000 0.140000 0
0.420000 0.140000 0
0.440000 0.140000 0
0.460000 0.140000 0
0.480000 0.140000 0
0.500000 0.140000 0
0.520000 0.140000 0
0.540000 0.140000 0
0.560000 0.140000 0
0.580000 0.140000 0
0.600000 0.140000 0
0.620000 0.140000 0
0.640000 0.140000 0
0.660000 0.140000 0
0.680000 0.140000 0
0.700000 0.140000 0
0.720000 0.140000 0
0.740000 0.140000 0
0.760000 0.140000 0
0.780000 0.140000 0
0.800000 0.140000 0
0.820000 0.140000 0
0.840000 0.140000 0
0.860000 0.140000 0
0.880000 0.140000 0
0.900000 0.140000 0
0.920000 0.140000 0
0.940000 0.140000 0
0.960000 0.140000 0
0.980000 0.140000 0
1.000000 0.140000 0
0.000000 0.160000 0
0.020000 0.160000 0
0.040000 0.160000 0
0.060000 0.160000 0
0.080000 0.160000 0
0.100000 0.160000 0
0.120000 0.160000 0
0.140000 0.160000 0
0.160000 0.160000 0
0.180000 0.160000 0
0.200000 0.160000 0
0.220000 0.160000 0
0.240000 0.160000 0
0.260000 0.160000 0
0.280000 0.160000 0
0.300000 0.160000 0
0.320000 0.160000 0
0.340000 0.160000 0
0.360000 0.160000 0
0.380000 0.160000 0
0.400000 0.160000 0
0.420000 0.160000 0
0.440000 0.160000 0
0.460000 0.160000 0
0.480000 0.160000 0
0.500000 0.160000 0
0.520000 0.160000 0
0.540000 0.160000 0
0.560000 0.160000 0
0.580000 0.160000 0
0.600000 0.160000 0
0.620000 0.160000 0
0.640000 0.160000 0
0.660000 0.160000 0
0.680000 0.160000 0
0.700000 0.160000 0
0.720000 0.160000 0
0.740000 0.160000 0
0.760000 0.160000 0
0.780000 0.160000 0
0.800000 0.160000 0
0.820000 0.160000 0
0.840000 0.160000 0
0.860000 0.160000 0
0.880000 0.160000 0
0.900000 0.160000 0
0.920000 0.160000 0
0.940000 0.160000 0
0.960000 0.160000 0
0.980000 0.160000 0
1.000000 0.160000 0
0.000000 0.180000 0
0.020000 0.180000 0
0.040000 0.180000 0
0.060000 0.180000 0
0.080000 0.180000 0
0.100000 0.180000 0
0.120000 0.180000 0
0.140000 0.180000 0
0.160000 0.180000 0
0.180000 0.180000 0
0.200000 0.180000 0
0.220000 0.180000 0
0.240000 0.180000 0
0.260000 0.180000 0
0.280000 0.180000 0
0.300000 0.180000 0
0.320000 0.180000 0
0.340000 0.180000 0
0.360000 0.180000 0
0.380000 0.180000 0
0.400000 0.180000 0
0.420000 0.180000 0
0.440000 0.180000 0
0.460000 0.180000 0
0.480000 0.180000 0
0.500000 0.180000 0
0.520000 0.180000 0
0.540000 0.180000 0
0.560000 0.180000 0
0.580000 0.180000 0
0.600000 0.180000 0
0.620000 0.180000 0
[...]
POINT_DATA 2601 

VECTORS velocity float
0.000000 0.000000 0
0.000000 0.000000 0
0.000000 0.000000 0
0.000000 0.000000 0
0.000000 0.000000 0
0.000000 0.000000 0
-0.000000 0.000000 0
-0.000000 0.000000 0
-0.000000 0.000000 0
-0.000000 0.000000 0
-0.000000 0.000000 0
-0.000000 0.000000 0
-0.000000 0.000000 0
-0.000000 0.000000 0
-0.000000 0.000000 0
-0.000000 0.000000 0
-0.000000 0.000000 0
-0.000000 0.000000 0
-0.000000 0.000000 0
-0.000000 0.000000 0
-0.000000 0.000000 0
-0.000000 0.000000 0
-0.000000 0.000000 0
-0.000000 0.000000 0
-0.000000 0.000000 0
-0.000000 0.000000 0
-0.000000 0.000000 0
-0.000000 0.000000 0
-0.000000 0.000000 0
-0.000000 0.000000 0
-0.000000 0.000000 0
-0.000000 0.000000 0
-0.000000 0.000000 0
-0.000000 0.000000 0
-0.000000 0.000000 0
-0.000000 0.000000 0
-0.000000 0.000000 0
-0.000000 0.000000 0
-0.000000 0.000000 0
-0.000000 0.000000 0
-0.000000 0.000000 0
-0.000000 0.000000 0
-0.000000 0.000000 0
-0.000000 0.000000 0
-0.000000 0.000000 0
-0.000000 0.000000 0
-0.000000 0.000000 0
-0.000000 0.000000 0
-0.000000 0.000000 0
-0.000000 0.000000 0
0.000000 0.000000 0
0.000000 0.000000 0
0.000020 0.000002 0
0.000040 0.000003 0
0.000061 0.000003 0
0.000082 0.000002 0
0.000105 -0.000002 0
0.000129 -0.000009 0
0.000155 -0.000019 0
0.000183 -0.000033 0
0.000213 -0.000051 0
0.000246 -0.000074 0
0.000281 -0.000103 0
0.000320 -0.000138 0
0.000363 -0.000179 0
0.000409 -0.000227 0
0.000460 -0.000284 0
0.000515 -0.000349 0
0.000576 -0.000424 0
0.000641 -0.000509 0
0.000713 -0.000605 0
0.000792 -0.000714 0
0.000878 -0.000837 0
0.000971 -0.000974 0
0.001073 -0.001127 0
0.001183 -0.001298 0
0.001303 -0.001488 0
0.001433 -0.001698 0
0.001574 -0.001930 0
0.001725 -0.002183 0
0.001887 -0.002459 0
0.002060 -0.002757 0
0.002242 -0.003076 0
0.002433 -0.003414 0
0.002629 -0.003765 0
0.002826 -0.004124 0
0.003021 -0.004480 0
0.003205 -0.004822 0
0.003371 -0.005133 0
0.003508 -0.005395 0
0.003604 -0.005585 0
0.003646 -0.005681 0
0.003622 -0.005658 0
0.003520 -0.005498 0
0.003333 -0.005185 0
0.003056 -0.004714 0
0.002692 -0.004091 0
0.002249 -0.003330 0
0.001741 -0.002458 0
0.001185 -0.001505 0
0.000599 -0.000507 0
0.000000 0.000000 0
0.000000 0.000000 0
0.000039 0.000004 0
0.000079 0.000007 0
0.000120 0.000008 0
0.000163 0.000005 0
0.000208 -0.000002 0
0.000256 -0.000015 0
0.000307 -0.000034 0
0.000363 -0.000061 0
0.000423 -0.000097 0
0.000488 -0.000143 0
0.000559 -0.000200 0
0.000637 -0.000268 0
0.000721 -0.000350 0
0.000814 -0.000447 0
0.000914 -0.000559 0
0.001024 -0.000688 0
0.001145 -0.000836 0
0.001276 -0.001005 0
0.001419 -0.001196 0
0.001575 -0.001412 0
0.001745 -0.001655 0
0.001930 -0.001928 0
0.002131 -0.002232 0
0.002351 -0.002571 0
0.002588 -0.002947 0
0.002846 -0.003364 0
0.003124 -0.003822 0
0.003424 -0.004324 0
0.003745 -0.004871 0
0.004087 -0.005462 0
0.004448 -0.006095 0
0.004825 -0.006765 0
0.005214 -0.007463 0
0.005607 -0.008177 0
0.005995 -0.008889 0
0.006364 -0.009574 0
0.006697 -0.010202 0
0.006975 -0.010734 0
0.007173 -0.011128 0
0.007267 -0.011335 0
0.007229 -0.011310 0
0.007037 -0.011009 0
0.006673 -0.010402 0
0.006128 -0.009474 0
0.005407 -0.008235 0
0.004524 -0.006713 0
0.003506 -0.004961 0
0.002388 -0.003041 0
0.001208 -0.001024 0
0.000000 0.000000 0
0.000000 0.000000 0
0.000058 0.000008 0
0.000117 0.000014 0
0.000178 0.000016 0
0.000242 0.000014 0
0.000309 0.000004 0
0.000380 -0.000014 0
0.000456 -0.000041 0
0.000539 -0.000081 0
0.000628 -0.000133 0
0.000725 -0.000201 0
0.000831 -0.000284 0
0.000946 -0.000386 0
0.001072 -0.000507 0
0.001209 -0.000650 0
0.001359 -0.000816 0
0.001523 -0.001008 0
0.001701 -0.001227 0
0.001896 -0.001478 0
0.002109 -0.001761 0
0.002340 -0.002081 0
0.002592 -0.002441 0
0.002866 -0.002844 0
0.003165 -0.003294 0
0.003489 -0.003796 0
0.003841 -0.004352 0
0.004222 -0.004968 0
0.004633 -0.005645 0
0.005076 -0.006388 0
0.005550 -0.007198 0
0.006055 -0.008073 0
0.006589 -0.009011 0
0.007148 -0.010005 0
0.007724 -0.011044 0
0.008309 -0.012110 0
0.008887 -0.013176 0
0.009441 -0.014209 0
0.009947 -0.015163 0
0.010373 -0.015983 0
0.010686 -0.016604 0
0.010846 -0.016954 0
0.010814 -0.016960 0
0.010553 -0.016555 0
0.010032 -0.015686 0
0.009237 -0.014327 0
0.008168 -0.012484 0
0.006848 -0.010200 0
0.005316 -0.007551 0
0.003626 -0.004635 0
0.001836 -0.001562 0
0.000000 0.000000 0
0.000000 0.000000 0
0.000076 0.000013 0
0.000154 0.000024 0
0.000234 0.000030 0
0.000317 0.000029 0
0.000405 0.000019 0
0.000499 -0.000003 0
0.000599 -0.000037 0
0.000708 -0.000087 0
0.000825 -0.000155 0
0.000953 -0.000242 0
0.001093 -0.000351 0
0.001245 -0.000484 0
0.001411 -0.000643 0
0.001592 -0.000830 0
0.001790 -0.001048 0
0.002005 -0.001299 0
0.002241 -0.001587 0
0.002497 -0.001915 0
0.002776 -0.002287 0
0.003081 -0.002707 0
0.003412 -0.003178 0
0.003772 -0.003706 0
0.004163 -0.004296 0
0.004588 -0.004953 0
0.005048 -0.005681 0
0.005546 -0.006487 0
0.006084 -0.007374 0
0.006663 -0.008346 0
0.007283 -0.009407 0
0.007944 -0.010554 0
0.008643 -0.011787 0
0.009375 -0.013096 0
0.010133 -0.014467 0
0.010904 -0.015880 0
0.011671 -0.017302 0
0.012411 -0.018689 0
0.013094 -0.019984 0
0.013679 -0.021115 0
0.014122 -0.021997 0
0.014371 -0.022531 0
0.014371 -0.022616 0
0.014068 -0.022156 0
0.013418 -0.021070 0
0.012395 -0.019314 0
0.010994 -0.016885 0
0.009242 -0.013835 0
0.007190 -0.010265 0
0.004912 -0.006312 0
0.002489 -0.002129 0
0.000000 0.000000 0
0.000000 0.000000 0
0.000093 0.000021 0
0.000188 0.000038 0
0.000286 0.000050 0
0.000388 0.000053 0
0.000496 0.000045 0
0.000611 0.000022 0
0.000734 -0.000018 0
0.000868 -0.000077 0
0.001013 -0.000157 0
0.001170 -0.000263 0
0.001342 -0.000395 0
0.001530 -0.000556 0
0.001735 -0.000750 0
0.001958 -0.000979 0
0.002202 -0.001246 0
0.002468 -0.001554 0
0.002757 -0.001907 0
0.003073 -0.002309 0
0.003417 -0.002765 0
0.003790 -0.003278 0
0.004197 -0.003855 0
0.004638 -0.004501 0
0.005117 -0.005223 0
0.005637 -0.006025 0
0.006200 -0.006916 0
0.006809 -0.007901 0
0.007466 -0.008985 0
0.008173 -0.010175 0
0.008930 -0.011473 0
0.009737 -0.012881 0
0.010592 -0.014395 0
0.011490 -0.016007 0
0.012422 -0.017702 0
0.013374 -0.019457 0
0.014327 -0.021235 0
0.015254 -0.022985 0
0.016119 -0.024638 0
0.016875 -0.026109 0
0.017467 -0.027290 0
0.017830 -0.028059 0
0.017891 -0.028281 0
0.017581 -0.027826 0
0.016835 -0.026581 0
0.015612 -0.024470 0
0.013899 -0.021478 0
0.011722 -0.017659 0
0.009143 -0.013138 0
0.006258 -0.008094 0
0.003174 -0.002733 0
0.000000 0.000000 0
0.000000 0.000000 0
0.000109 0.000031 0
0.000220 0.000059 0
0.000334 0.000079 0
0.000453 0.000089 0
0.000580 0.000085 0
0.000714 0.000063 0
0.000860 0.000021 0
0.001017 -0.000044 0
0.001188 -0.000135 0
0.001374 -0.000256 0
0.001577 -0.000409 0
0.001799 -0.000597 0
0.002041 -0.000823 0
0.002305 -0.001091 0
0.002593 -0.001404 0
0.002906 -0.001765 0
0.003248 -0.002179 0
0.003620 -0.002650 0
0.004025 -0.003184 0
0.004465 -0.003786 0
0.004942 -0.004461 0
0.005461 -0.005218 0
0.006023 -0.006062 0
0.006632 -0.007001 0
0.007291 -0.008043 0
0.008003 -0.009195 0
0.008771 -0.010464 0
0.009596 -0.011858 0
0.010481 -0.013380 0
0.011426 -0.015033 0
0.012427 -0.016815 0
0.013481 -0.018718 0
0.014578 -0.020729 0
0.015705 -0.022821 0
0.016841 -0.024956 0
0.017955 -0.027077 0
0.019008 -0.029109 0
0.019948 -0.030950 0
0.020709 -0.032475 0
0.021212 -0.033535 0
0.021369 -0.033961 0
0.021088 -0.033582 0
0.020285 -0.032243 0
0.018897 -0.029830 0
0.016895 -0.026304 0
0.014302 -0.021713 0
0.011189 -0.016206 0
0.007675 -0.010007 0
0.003898 -0.003383 0
0.000000 0.000000 0
0.000000 0.000000 0
0.000123 0.000045 0
0.000248 0.000086 0
0.000377 0.000119 0
0.000512 0.000139 0
0.000655 0.000142 0
0.000808 0.000125 0
0.000974 0.000084 0
0.001153 0.000015 0
0.001349 -0.000085 0
0.001562 -0.000218 0
0.001794 -0.000389 0
0.002048 -0.000601 0
0.002326 -0.000857 0
0.002628 -0.001160 0
0.002959 -0.001514 0
0.003318 -0.001925 0
0.003710 -0.002395 0
0.004135 -0.002931 0
0.004598 -0.003537 0
0.005100 -0.004221 0
0.005645 -0.004988 0
0.006235 -0.005847 0
0.006875 -0.006804 0
0.007567 -0.007870 0
0.008315 -0.009051 0
0.009123 -0.010358 0
0.009993 -0.011799 0
0.010930 -0.013383 0
0.011933 -0.015114 0
0.013005 -0.016998 0
0.014143 -0.019034 0
0.015343 -0.021218 0
0.016598 -0.023534 0
0.017893 -0.025959 0
0.019206 -0.028452 0
0.020508 -0.030956 0
0.021755 -0.033386 0
0.022889 -0.035631 0
0.023838 -0.037547 0
0.024509 -0.038959 0
0.024797 -0.039661 0
0.024588 -0.039437 0
0.023770 -0.038080 0
0.022254 -0.035428 0
0.019992 -0.031402 0
0.016995 -0.026039 0
0.013342 -0.019505 0
0.009174 -0.012075 0
0.004667 -0.004088 0
0.000000 0.000000 0
0.000000 0.000000 0
0.000135 0.000064 0
0.000272 0.000123 0
0.000414 0.000171 0
0.000563 0.000205 0
0.000721 0.000220 0
0.000891 0.000211 0
0.001075 0.000173 0
0.001275 0.000105 0
0.001493 0.000000 0
0.001731 -0.000143 0
0.001992 -0.000329 0
0.002276 -0.000562 0
0.002588 -0.000844 0
0.002927 -0.001179 0
0.003298 -0.001572 0
0.003701 -0.002028 0
0.004139 -0.002550 0
0.004616 -0.003145 0
0.005133 -0.003818 0
0.005694 -0.004577 0
0.006302 -0.005428 0
0.006960 -0.006381 0
0.007672 -0.007443 0
0.008441 -0.008624 0
0.009272 -0.009934 0
0.010168 -0.011384 0
0.011133 -0.012983 0
0.012171 -0.014742 0
0.013284 -0.016669 0
0.014473 -0.018770 0
0.015739 -0.021048 0
0.017077 -0.023499 0
0.018480 -0.026113 0
0.019936 -0.028866 0
0.021423 -0.031720 0
0.022911 -0.034616 0
0.024356 -0.037465 0
0.025696 -0.040149 0
0.026851 -0.042505 0
0.027717 -0.044333 0
0.028172 -0.045390 0
0.028076 -0.045407 0
0.027290 -0.044119 0
0.025689 -0.041298 0
0.023199 -0.036815 0
0.019813 -0.030681 0
0.015614 -0.023074 0
0.010766 -0.014325 0
0.005486 -0.004857 0
0.000000 0.000000 0
0.000000 0.000000 0
0.000144 0.000087 0
0.000291 0.000169 0
0.000444 0.000239 0
0.000604 0.000291 0
0.000776 0.000322 0
0.000960 0.000324 0
0.001161 0.000295 0
0.001379 0.000229 0
0.001619 0.000124 0
0.001880 -0.000027 0
0.002167 -0.000225 0
0.002481 -0.000474 0
0.002824 -0.000779 0
0.003199 -0.001144 0
0.003607 -0.001572 0
0.004052 -0.002068 0
0.004536 -0.002638 0
0.005060 -0.003287 0
0.005629 -0.004021 0
0.006246 -0.004849 0
0.006913 -0.005777 0
0.007634 -0.006815 0
0.008413 -0.007972 0
0.009254 -0.009259 0
0.010161 -0.010687 0
0.011139 -0.012267 0
0.012192 -0.014013 0
0.013323 -0.015934 0
0.014537 -0.018043 0
0.015835 -0.020348 0
0.017218 -0.022854 0
0.018684 -0.025563 0
0.020228 -0.028465 0
0.021838 -0.031543 0
0.023494 -0.034760 0
0.025168 -0.038058 0
0.026813 -0.041349 0
0.028368 -0.044505 0
0.029745 -0.047352 0
0.030833 -0.049663 0
0.031489 -0.051156 0
0.031551 -0.051509 0
0.030843 -0.050383 0
0.029205 -0.047476 0
0.026523 -0.042586 0
0.022768 -0.035685 0
0.018017 -0.026956 0
0.012461 -0.016788 0
0.006361 -0.005702 0
0.000000 0.000000 0
0.000000 0.000000 0
0.000151 0.000117 0
0.000306 0.000227 0
0.000466 0.000324 0
0.000636 0.000400 0
0.000818 0.000451 0
0.001015 0.000470 0
0.001230 0.000453 0
0.001465 0.000395 0
0.001724 0.000291 0
0.002007 0.000137 0
0.002318 -0.000069 0
0.002660 -0.000333 0
0.003033 -0.000658 0
0.003442 -0.001048 0
0.003887 -0.001508 0
0.004371 -0.002041 0
0.004897 -0.002654 0
0.005468 -0.003352 0
0.006086 -0.004142 0
0.006755 -0.005032 0
0.007477 -0.006030 0
0.008258 -0.007146 0
0.009099 -0.008389 0
0.010007 -0.009772 0
0.010986 -0.011307 0
0.012039 -0.013007 0
0.013172 -0.014886 0
0.014390 -0.016958 0
0.015696 -0.019236 0
0.017095 -0.021732 0
0.018587 -0.024455 0
0.020174 -0.027410 0
0.021850 -0.030595 0
0.023607 -0.033994 0
0.025428 -0.037576 0
0.027284 -0.041287 0
0.029132 -0.045040 0
0.030909 -0.048703 0
0.032524 -0.052092 0
0.033856 -0.054955 0
0.034747 -0.056972 0
0.035009 -0.057759 0
0.034429 -0.056900 0
0.032803 -0.053998 0
0.029971 -0.048762 0
0.025869 -0.041103 0
0.020564 -0.031198 0
0.014269 -0.019495 0
0.007298 -0.006633 0
0.000000 0.000000 0
0.000000 0.000000 0
0.000155 0.000153 0
0.000314 0.000299 0
0.000480 0.000429 0
0.000656 0.000535 0
0.000846 0.000612 0
0.001053 0.000653 0
0.001280 0.000653 0
0.001530 0.000606 0
0.001806 0.000508 0
0.002109 0.000354 0
0.002444 0.000142 0
0.002811 -0.000133 0
0.003213 -0.000475 0
0.003653 -0.000888 0
0.004133 -0.001375 0
0.004656 -0.001942 0
0.005223 -0.002594 0
0.005837 -0.003337 0
0.006503 -0.004177 0
0.007221 -0.005124 0
0.007997 -0.006185 0
0.008833 -0.007371 0
0.009734 -0.008693 0
0.010704 -0.010163 0
0.011749 -0.011795 0
0.012872 -0.013604 0
0.014080 -0.015605 0
0.015378 -0.017815 0
0.016770 -0.020250 0
0.018261 -0.022926 0
0.019856 -0.025855 0
0.021555 -0.029048 0
0.023357 -0.032507 0
0.025254 -0.036225 0
0.027233 -0.040175 0
0.029269 -0.044310 0
0.031321 -0.048545 0
0.033325 -0.052750 0
0.035190 -0.056731 0
0.036787 -0.060217 0
0.037945 -0.062847 0
0.038448 -0.064176 0
0.038047 -0.063696 0
0.036485 -0.060902 0
0.033548 -0.055391 0
0.029125 -0.046989 0
0.023265 -0.035850 0
0.016201 -0.022484 0
0.008304 -0.007665 0
0.000000 0.000000 0
0.000000 0.000000 0
0.000156 0.000198 0
0.000316 0.000387 0
0.000483 0.000557 0
0.000663 0.000701 0
0.000858 0.000811 0
0.001073 0.000879 0
0.001310 0.000900 0
0.001572 0.000869 0
0.001863 0.000780 0
0.002185 0.000630 0
0.002540 0.000415 0
0.002932 0.000132 0
0.003362 -0.000225 0
0.003833 -0.000657 0
0.004347 -0.001169 0
0.004906 -0.001767 0
0.005513 -0.002454 0
0.006170 -0.003237 0
0.006880 -0.004124 0
0.007647 -0.005122 0
0.008473 -0.006240 0
0.009363 -0.007490 0
0.010320 -0.008882 0
0.011350 -0.010431 0
0.012456 -0.012151 0
0.013645 -0.014059 0
0.014923 -0.016172 0
0.016294 -0.018510 0
0.017767 -0.021091 0
0.019345 -0.023935 0
0.021035 -0.027060 0
0.022839 -0.030482 0
0.024759 -0.034210 0
0.026791 -0.038243 0
0.028923 -0.042564 0
0.031135 -0.047133 0
0.033389 -0.051872 0
0.035624 -0.056653 0
0.037749 -0.061277 0
0.039630 -0.065456 0
0.041082 -0.068792 0
0.041867 -0.070774 0
0.041693 -0.070797 0
0.040249 -0.068228 0
0.037256 -0.062525 0
0.032543 -0.053400 0
0.026130 -0.040967 0
0.018265 -0.025795 0
0.009383 -0.008812 0
0.000000 0.000000 0
0.000000 0.000000 0
0.000152 0.000252 0
0.000310 0.000493 0
0.000476 0.000713 0
0.000655 0.000902 0
0.000852 0.001051 0
0.001071 0.001153 0
0.001315 0.001201 0
0.001588 0.001190 0
0.001892 0.001115 0
0.002231 0.000972 0
0.002606 0.000757 0
0.003022 0.000467 0
0.003478 0.000099 0
0.003979 -0.000350 0
0.004526 -0.000886 0
0.005121 -0.001511 0
0.005767 -0.002230 0
0.006466 -0.003051 0
0.007220 -0.003979 0
0.008034 -0.005024 0
0.008909 -0.006194 0
0.009850 -0.007501 0
0.010862 -0.008958 0
0.011948 -0.010578 0
0.013113 -0.012377 0
0.014365 -0.014375 0
0.015708 -0.016591 0
0.017150 -0.019046 0
0.018697 -0.021763 0
0.020357 -0.024765 0
0.022136 -0.028078 0
0.024039 -0.031720 0
0.026071 -0.035711 0
0.028231 -0.040057 0
0.030511 -0.044751 0
0.032895 -0.049764 0
0.035349 -0.055026 0
0.037816 -0.060416 0
0.040207 -0.065734 0
0.042387 -0.070679 0
0.044159 -0.074816 0
0.045261 -0.077570 0
0.045362 -0.078228 0
0.044091 -0.076012 0
0.041094 -0.070214 0
0.036127 -0.060398 0
0.029167 -0.046609 0
0.020470 -0.029472 0
0.010542 -0.010091 0
0.000000 0.000000 0
0.000000 0.000000 0
0.000145 0.000317 0
0.000295 0.000621 0
0.000455 0.000900 0
0.000630 0.001143 0
0.000826 0.001340 0
0.001046 0.001483 0
0.001295 0.001564 0
0.001575 0.001578 0
0.001891 0.001520 0
0.002245 0.001387 0
0.002639 0.001175 0
0.003077 0.000881 0
0.003560 0.000502 0
0.004090 0.000037 0
0.004669 -0.000519 0
0.005300 -0.001170 0
0.005985 -0.001920 0
0.006725 -0.002775 0
0.007524 -0.003742 0
0.008383 -0.004829 0
0.009308 -0.006046 0
0.010300 -0.007406 0
0.011364 -0.008920 0
0.012505 -0.010604 0
0.013728 -0.012476 0
0.015039 -0.014555 0
0.016445 -0.016864 0
0.017953 -0.019427 0
0.019572 -0.022271 0
0.021308 -0.025423 0
0.023171 -0.028913 0
0.025169 -0.032769 0
0.027307 -0.037016 0
0.029589 -0.041673 0
0.032011 -0.046743 0
0.034562 -0.052208 0
0.037212 -0.058012 0
0.039912 -0.064044 0
0.042574 -0.070107 0
0.045062 -0.075889 0
0.047174 -0.080927 0
0.048626 -0.084576 0
0.049048 -0.086012 0
0.048005 -0.084293 0
0.045058 -0.078511 0
0.039877 -0.068045 0
0.032379 -0.052837 0
0.022822 -0.033560 0
0.011783 -0.011518 0
0.000000 0.000000 0
0.000000 0.000000 0
0.000132 0.000395 0
0.000269 0.000775 0
0.000419 0.001125 0
0.000586 0.001433 0
0.000776 0.001687 0
0.000994 0.001877 0
0.001244 0.001997 0
0.001530 0.002041 0
0.001855 0.002004 0
0.002223 0.001883 0
0.002635 0.001675 0
0.003095 0.001379 0
0.003604 0.000992 0
0.004164 0.000511 0
0.004776 -0.000065 0
0.005444 -0.000740 0
0.006167 -0.001519 0
0.006950 -0.002406 0
0.007793 -0.003409 0
0.008699 -0.004536 0
0.009672 -0.005797 0
0.010715 -0.007203 0
0.011832 -0.008769 0
0.013027 -0.010512 0
0.014307 -0.012449 0
0.015677 -0.014603 0
0.017144 -0.016997 0
0.018716 -0.019660 0
0.020403 -0.022621 0
0.022213 -0.025914 0
0.024156 -0.029573 0
0.026244 -0.033634 0
0.028483 -0.038133 0
0.030881 -0.043097 0
0.033440 -0.048544 0
0.036151 -0.054470 0
0.038994 -0.060835 0
0.041923 -0.067539 0
0.044857 -0.074396 0
0.047661 -0.081089 0
0.050130 -0.087128 0
0.051960 -0.091802 0
0.052743 -0.094169 0
0.051980 -0.093103 0
0.049138 -0.087467 0
0.043788 -0.076405 0
0.035767 -0.059717 0
0.025323 -0.038110 0
0.013109 -0.013112 0
0.000000 0.000000 0
0.000000 0.000000 0
0.000113 0.000489 0
0.000232 0.000960 0
0.000366 0.001395 0
0.000520 0.001779 0
0.000700 0.002100 0
0.000912 0.002347 0
0.001160 0.002512 0
0.001449 0.002590 0
0.001782 0.002577 0
0.002162 0.002471 0
0.002592 0.002269 0
0.003073 0.001970 0
0.003608 0.001574 0
0.004199 0.001079 0
0.004845 0.000483 0
0.005550 -0.000217 0
0.006315 -0.001023 0
0.007141 -0.001942 0
0.008030 -0.002979 0
0.008984 -0.004143 0
0.010007 -0.005444 0
0.011102 -0.006894 0
0.012272 -0.008509 0
0.013523 -0.010304 0
0.014859 -0.012300 0
0.016287 -0.014521 0
0.017814 -0.016994 0
0.019449 -0.019748 0
0.021202 -0.022818 0
0.023084 -0.026242 0
0.025105 -0.030062 0
0.027277 -0.034322 0
0.029614 -0.039065 0
0.032123 -0.044333 0
0.034812 -0.050158 0
0.037679 -0.056553 0
0.040709 -0.063494 0
0.043862 -0.070901 0
0.047066 -0.078601 0
0.050190 -0.086278 0
0.053025 -0.093419 0
0.055255 -0.099253 0
0.056436 -0.102713 0
0.056001 -0.102474 0
0.053321 -0.097128 0
0.047847 -0.085538 0
0.039322 -0.067314 0
0.027970 -0.043170 0
0.014521 -0.014893 0
0.000000 0.000000 0
0.000000 0.000000 0
0.000087 0.000602 0
0.000182 0.001181 0
0.000293 0.001717 0
0.000428 0.002192 0
0.000593 0.002591 0
0.000794 0.002903 0
0.001038 0.003121 0
0.001327 0.003238 0
0.001666 0.003252 0
0.002057 0.003161 0
0.002504 0.002965 0
0.003008 0.002664 0
0.003570 0.002257 0
0.004192 0.001746 0
0.004875 0.001129 0
0.005620 0.000405 0
0.006427 -0.000430 0
0.007299 -0.001380 0
0.008236 -0.002451 0
0.009242 -0.003650 0
0.010317 -0.004989 0
0.011466 -0.006480 0
0.012691 -0.008138 0
0.013998 -0.009981 0
0.015392 -0.012031 0
0.016879 -0.014313 0
0.018467 -0.016856 0
0.020166 -0.019694 0
0.021985 -0.022865 0
0.023935 -0.026413 0
0.026032 -0.030386 0
0.028287 -0.034835 0
0.030716 -0.039817 0
0.033332 -0.045385 0
0.036146 -0.051587 0
0.039162 -0.058456 0
0.042371 -0.065989 0
0.045743 -0.074128 0
0.049212 -0.082717 0
0.052654 -0.091450 0
0.055862 -0.099798 0
0.058507 -0.106931 0
0.060114 -0.111655 0
0.060051 -0.112429 0
0.057585 -0.107538 0
0.052036 -0.095505 0
0.043032 -0.075690 0
0.030755 -0.048793 0
0.016014 -0.016879 0
0.000000 0.000000 0
0.000000 0.000000 0
0.000053 0.000738 0
0.000115 0.001447 0
0.000196 0.002103 0
0.000305 0.002685 0
0.000450 0.003176 0
0.000636 0.003563 0
0.000870 0.003840 0
0.001157 0.004000 0
0.001501 0.004043 0
0.001903 0.003968 0
0.002367 0.003776 0
0.002894 0.003471 0
0.003485 0.003052 0
0.004141 0.002523 0
0.004863 0.001882 0
0.005650 0.001131 0
0.006505 0.000266 0
0.007426 -0.000716 0
0.008416 -0.001821 0
0.009475 -0.003056 0
0.010606 -0.004432 0
0.011812 -0.005961 0
0.013096 -0.007660 0
0.014463 -0.009547 0
0.015917 -0.011645 0
0.017465 -0.013982 0
0.019116 -0.016590 0
0.020878 -0.019504 0
0.022763 -0.022768 0
0.024783 -0.026430 0
0.026953 -0.030546 0
0.029289 -0.035178 0
0.031808 -0.040390 0
0.034526 -0.046253 0
0.037460 -0.052831 0
0.040617 -0.060177 0
0.043998 -0.068315 0
0.047580 -0.077211 0
0.051307 -0.086736 0
0.055062 -0.096597 0
0.058641 -0.106257 0