# vtk DataFile Version 2.0
generated by CFD-lab course output (written by Tobias Neckel) 
ASCII

DATASET STRUCTURED_GRID
DIMENSIONS  51 51 1 
POINTS 2601 float

0.000000 0.000000 0
0.020000 0.000000 0
0.040000 0.000000 0
0.060000 0.000000 0
0.080000 0.000000 0
0.100000 0.000000 0
0.120000 0.000000 0
0.140000 0.000000 0
0.160000 0.000000 0
0.180000 0.000000 0
0.200000 0.000000 0
0.220000 0.000000 0
0.240000 0.000000 0
0.260000 0.000000 0
0.280000 0.000000 0
0.300000 0.000000 0
0.320000 0.000000 0
0.340000 0.000000 0
0.360000 0.000000 0
0.380000 0.000000 0
0.400000 0.000000 0
0.420000 0.000000 0
0.440000 0.000000 0
0.460000 0.000000 0
0.480000 0.000000 0
0.500000 0.000000 0
0.520000 0.000000 0
0.540000 0.000000 0
0.560000 0.000000 0
0.580000 0.000000 0
0.600000 0.000000 0
0.620000 0.000000 0
0.640000 0.000000 0
0.660000 0.000000 0
0.680000 0.000000 0
0.700000 0.000000 0
0.720000 0.000000 0
0.740000 0.000000 0
0.760000 0.000000 0
0.780000 0.000000 0
0.800000 0.000000 0
0.820000 0.000000 0
0.840000 0.000000 0
0.860000 0.000000 0
0.880000 0.000000 0
0.900000 0.000000 0
0.920000 0.000000 0
0.940000 0.000000 0
0.960000 0.000000 0
0.980000 0.000000 0
1.000000 0.000000 0
0.000000 0.020000 0
0.020000 0.020000 0
0.040000 0.020000 0
0.060000 0.020000 0
0.080000 0.020000 0
0.100000 0.020000 0
0.120000 0.020000 0
0.140000 0.020000 0
0.160000 0.020000 0
0.180000 0.020000 0
0.200000 0.020000 0
0.220000 0.020000 0
0.240000 0.020000 0
0.260000 0.020000 0
0.280000 0.020000 0
0.300000 0.020000 0
0.320000 0.020000 0
0.340000 0.020000 0
0.360000 0.020000 0
0.380000 0.020000 0
0.400000 0.020000 0
0.420000 0.020000 0
0.440000 0.020000 0
0.460000 0.020000 0
0.480000 0.020000 0
0.500000 0.020000 0
0.520000 0.020000 0
0.540000 0.020000 0
0.560000 0.020000 0
0.580000 0.020000 0
0.600000 0.020000 0
0.620000 0.020000 0
0.640000 0.020000 0
0.660000 0.020000 0
0.680000 0.020000 0
0.700000 0.020000 0
0.720000 0.020000 0
0.740000 0.020000 0
0.760000 0.020000 0
0.780000 0.020000 0
0.800000 0.020000 0
0.820000 0.020000 0
0.840000 0.020000 0
0.860000 0.020000 0
0.880000 0.020000 0
0.900000 0.020000 0
0.920000 0.020000 0
0.940000 0.020000 0
0.960000 0.020000 0
0.980000 0.020000 0
1.000000 0.020000 0
0.000000 0.040000 0
0.020000 0.040000 0
0.040000 0.040000 0
0.060000 0.040000 0
0.080000 0.040000 0
0.100000 0.040000 0
0.120000 0.040000 0
0.140000 0.040000 0
0.160000 0.040000 0
0.180000 0.040000 0
0.200000 0.040000 0
0.220000 0.040000 0
0.240000 0.040000 0
0.260000 0.040000 0
0.280000 0.040000 0
0.300000 0.040000 0
0.320000 0.040000 0
0.340000 0.040000 0
0.360000 0.040000 0
0.380000 0.040000 0
0.400000 0.040000 0
0.420000 0.040000 0
0.440000 0.040000 0
0.460000 0.040000 0
0.480000 0.040000 0
0.500000 0.040000 0
0.520000 0.040000 0
0.540000 0.040000 0
0.560000 0.040000 0
0.580000 0.040000 0
0.600000 0.040000 0
0.620000 0.040000 0
0.640000 0.040000 0
0.660000 0.040000 0
0.680000 0.040000 0
0.700000 0.040000 0
0.720000 0.040000 0
0.740000 0.040000 0
0.760000 0.040000 0
0.780000 0.040000 0
0.800000 0.040000 0
0.820000 0.040000 0
0.840000 0.040000 0
0.860000 0.040000 0
0.880000 0.040000 0
0.900000 0.040000 0
0.920000 0.040000 0
0.940000 0.040000 0
0.960000 0.040000 0
0.980000 0.040000 0
1.000000 0.040000 0
0.000000 0.060000 0
0.020000 0.060000 0
0.040000 0.060000 0
0.060000 0.060000 0
0.080000 0.060000 0
0.100000 0.060000 0
0.120000 0.060000 0
0.140000 0.060000 0
0.160000 0.060000 0
0.180000 0.060000 0
0.200000 0.060000 0
0.220000 0.060000 0
0.240000 0.060000 0
0.260000 0.060000 0
0.280000 0.060000 0
0.300000 0.060000 0
0.320000 0.060000 0
0.340000 0.060000 0
0.360000 0.060000 0
0.380000 0.060000 0
0.400000 0.060000 0
0.420000 0.060000 0
0.440000 0.060000 0
0.460000 0.060000 0
0.480000 0.060000 0
0.500000 0.060000 0
0.520000 0.060000 0
0.540000 0.060000 0
0.560000 0.060000 0
0.580000 0.060000 0
0.600000 0.060000 0
0.620000 0.060000 0
0.640000 0.060000 0
0.660000 0.060000 0
0.680000 0.060000 0
0.700000 0.060000 0
0.720000 0.060000 0
0.740000 0.060000 0
0.760000 0.060000 0
0.780000 0.060000 0
0.800000 0.060000 0
0.820000 0.060000 0
0.840000 0.060000 0
0.860000 0.060000 0
0.880000 0.060000 0
0.900000 0.060000 0
0.920000 0.060000 0
0.940000 0.060000 0
0.960000 0.060000 0
0.980000 0.060000 0
1.000000 0.060000 0
0.000000 0.080000 0
0.020000 0.080000 0
0.040000 0.080000 0
0.060000 0.080000 0
0.080000 0.080000 0
0.100000 0.080000 0
0.120000 0.080000 0
0.140000 0.080000 0
0.160000 0.080000 0
0.180000 0.080000 0
0.200000 0.080000 0
0.220000 0.080000 0
0.240000 0.080000 0
0.260000 0.080000 0
0.280000 0.080000 0
0.300000 0.080000 0
0.320000 0.080000 0
0.340000 0.080000 0
0.360000 0.080000 0
0.380000 0.080000 0
0.400000 0.080000 0
0.420000 0.080000 0
0.440000 0.080000 0
0.460000 0.080000 0
0.480000 0.080000 0
0.500000 0.080000 0
0.520000 0.080000 0
0.540000 0.080000 0
0.560000 0.080000 0
0.580000 0.080000 0
0.600000 0.080000 0
0.620000 0.080000 0
0.640000 0.080000 0
0.660000 0.080000 0
0.680000 0.080000 0
0.700000 0.080000 0
0.720000 0.080000 0
0.740000 0.080000 0
0.760000 0.080000 0
0.780000 0.080000 0
0.800000 0.080000 0
0.820000 0.080000 0
0.840000 0.080000 0
0.860000 0.080000 0
0.880000 0.080000 0
0.900000 0.080000 0
0.920000 0.080000 0
0.940000 0.080000 0
0.960000 0.080000 0
0.980000 0.080000 0
1.000000 0.080000 0
0.000000 0.100000 0
0.020000 0.100000 0
0.040000 0.100000 0
0.060000 0.100000 0
0.080000 0.100000 0
0.100000 0.100000 0
0.120000 0.100000 0
0.140000 0.100000 0
0.160000 0.100000 0
0.180000 0.100000 0
0.200000 0.100000 0
0.220000 0.100000 0
0.240000 0.100000 0
0.260000 0.100000 0
0.280000 0.100000 0
0.300000 0.100000 0
0.320000 0.100000 0
0.340000 0.100000 0
0.360000 0.100000 0
0.380000 0.100000 0
0.400000 0.100000 0
0.420000 0.100000 0
0.440000 0.100000 0
0.460000 0.100000 0
0.480000 0.100000 0
0.500000 0.100000 0
0.520000 0.100000 0
0.540000 0.100000 0
0.560000 0.100000 0
0.580000 0.100000 0
0.600000 0.100000 0
0.620000 0.100000 0
0.640000 0.100000 0
0.660000 0.100000 0
0.680000 0.100000 0
0.700000 0.100000 0
0.720000 0.100000 0
0.740000 0.100000 0
0.760000 0.100000 0
0.780000 0.100000 0
0.800000 0.100000 0
0.820000 0.100000 0
0.840000 0.100000 0
0.860000 0.100000 0
0.880000 0.100000 0
0.900000 0.100000 0
0.920000 0.100000 0
0.940000 0.100000 0
0.960000 0.100000 0
0.980000 0.100000 0
1.000000 0.100000 0
0.000000 0.120000 0
0.020000 0.120000 0
0.040000 0.120000 0
0.060000 0.120000 0
0.080000 0.120000 0
0.100000 0.120000 0
0.120000 0.120000 0
0.140000 0.120000 0
0.160000 0.120000 0
0.180000 0.120000 0
0.200000 0.120000 0
0.220000 0.120000 0
0.240000 0.120000 0
0.260000 0.120000 0
0.280000 0.120000 0
0.300000 0.120000 0
0.320000 0.120000 0
0.340000 0.120000 0
0.360000 0.120000 0
0.380000 0.120000 0
0.400000 0.120000 0
0.420000 0.120000 0
0.440000 0.120000 0
0.460000 0.120000 0
0.480000 0.120000 0
0.500000 0.120000 0
0.520000 0.120000 0
0.540000 0.120000 0
0.560000 0.120000 0
0.580000 0.120000 0
0.600000 0.120000 0
0.620000 0.120000 0
0.640000 0.120000 0
0.660000 0.120000 0
0.680000 0.120000 0
0.700000 0.120000 0
0.720000 0.120000 0
0.740000 0.120000 0
0.760000 0.120000 0
0.780000 0.120000 0
0.800000 0.120000 0
0.820000 0.120000 0
0.840000 0.120000 0
0.860000 0.120000 0
0.880000 0.120000 0
0.900000 0.120000 0
0.920000 0.120000 0
0.940000 0.120000 0
0.960000 0.120000 0
0.980000 0.120000 0
1.000000 0.120000 0
0.000000 0.140000 0
0.020000 0.140000 0
0.040000 0.140000 0
0.060000 0.140000 0
0.080000 0.140000 0
0.100000 0.140000 0
0.120000 0.140000 0
0.140000 0.140000 0
0.160000 0.140000 0
0.180000 0.140000 0
0.200000 0.140000 0
0.220000 0.140000 0
0.240000 0.140000 0
0.260000 0.140000 0
0.280000 0.140000 0
0.300000 0.140000 0
0.320000 0.140000 0
0.340000 0.140000 0
0.360000 0.140000 0
0.380000 0.140000 0
0.400000 0.140000 0
0.420000 0.140000 0
0.440000 0.140000 0
0.460000 0.140000 0
0.480000 0.140000 0
0.500000 0.140000 0
0.520000 0.140000 0
0.540000 0.140000 0
0.560000 0.140000 0
0.580000 0.140000 0
0.600000 0.140000 0
0.620000 0.140000 0
0.640000 0.140000 0
0.660000 0.140000 0
0.680000 0.140000 0
0.700000 0.140000 0
0.720000 0.140000 0
0.740000 0.140000 0
0.760000 0.140000 0
0.780000 0.140000 0
0.800000 0.140000 0
0.820000 0.140000 0
0.840000 0.140000 0
0.860000 0.140000 0
0.880000 0.140000 0
0.900000 0.140000 0
0.920000 0.140000 0
0.940000 0.140000 0
0.960000 0.140000 0
0.980000 0.140000 0
1.000000 0.140000 0
0.000000 0.160000 0
0.020000 0.160000 0
0.040000 0.160000 0
0.060000 0.160000 0
0.080000 0.160000 0
0.100000 0.160000 0
0.120000 0.160000 0
0.140000 0.160000 0
0.160000 0.160000 0
0.180000 0.160000 0
0.200000 0.160000 0
0.220000 0.160000 0
0.240000 0.160000 0
0.260000 0.160000 0
0.280000 0.160000 0
0.300000 0.160000 0
0.320000 0.160000 0
0.340000 0.160000 0
0.360000 0.160000 0
0.380000 0.160000 0
0.400000 0.160000 0
0.420000 0.160000 0
0.440000 0.160000 0
0.460000 0.160000 0
0.480000 0.160000 0
0.500000 0.160000 0
0.520000 0.160000 0
0.540000 0.160000 0
0.560000 0.160000 0
0.580000 0.160000 0
0.600000 0.160000 0
0.620000 0.160000 0
0.640000 0.160000 0
0.660000 0.160000 0
0.680000 0.160000 0
0.700000 0.160000 0
0.720000 0.160000 0
0.740000 0.160000 0
0.760000 0.160000 0
0.780000 0.160000 0
0.800000 0.160000 0
0.820000 0.160000 0
0.840000 0.160000 0
0.860000 0.160000 0
0.880000 0.160000 0
0.900000 0.160000 0
0.920000 0.160000 0
0.940000 0.160000 0
0.960000 0.160000 0
0.980000 0.160000 0
1.000000 0.160000 0
0.000000 0.180000 0
0.020000 0.180000 0
0.040000 0.180000 0
0.060000 0.180000 0
0.080000 0.180000 0
0.100000 0.180000 0
0.120000 0.180000 0
0.140000 0.180000 0
0.160000 0.180000 0
0.180000 0.180000 0
0.200000 0.180000 0
0.220000 0.180000 0
0.240000 0.180000 0
0.260000 0.180000 0
0.280000 0.180000 0
0.300000 0.180000 0
0.320000 0.180000 0
0.340000 0.180000 0
0.360000 0.180000 0
0.380000 0.180000 0
0.400000 0.180000 0
0.420000 0.180000 0
0.440000 0.180000 0
0.460000 0.180000 0
0.480000 0.180000 0
0.500000 0.180000 0
0.520000 0.180000 0
0.540000 0.180000 0
0.560000 0.180000 0
0.580000 0.180000 0
0.600000 0.180000 0
0.620000 0.180000 0
[...]
POINT_DATA 2601 

VECTORS velocity float
0.000000 0.000000 0
0.000000 0.000000 0
0.000000 0.000000 0
0.000000 0.000000 0
0.000000 0.000000 0
0.000000 0.000000 0
0.000000 0.000000 0
0.000000 0.000000 0
0.000000 0.000000 0
0.000000 0.000000 0
0.000000 0.000000 0
0.000000 0.000000 0
0.000000 0.000000 0
0.000000 0.000000 0
0.000000 0.000000 0
0.000000 0.000000 0
-0.000000 0.000000 0
-0.000000 0.000000 0
-0.000000 0.000000 0
-0.000000 0.000000 0
-0.000000 0.000000 0
-0.000000 0.000000 0
-0.000000 0.000000 0
-0.000000 0.000000 0
-0.000000 0.000000 0
-0.000000 0.000000 0
-0.000000 0.000000 0
-0.000000 0.000000 0
-0.000000 0.000000 0
-0.000000 0.000000 0
-0.000000 0.000000 0
-0.000000 0.000000 0
-0.000000 0.000000 0
-0.000000 0.000000 0
-0.000000 0.000000 0
-0.000000 0.000000 0
-0.000000 0.000000 0
-0.000000 0.000000 0
-0.000000 0.000000 0
-0.000000 0.000000 0
-0.000000 0.000000 0
-0.000000 0.000000 0
-0.000000 0.000000 0
-0.000000 0.000000 0
-0.000000 0.000000 0
-0.000000 0.000000 0
-0.000000 0.000000 0
-0.000000 0.000000 0
-0.000000 0.000000 0
-0.000000 0.000000 0
0.000000 0.000000 0
0.000000 0.000000 0
0.000020 0.000002 0
0.000040 0.000003 0
0.000061 0.000003 0
0.000082 0.000001 0
0.000105 -0.000003 0
0.000129 -0.000010 0
0.000155 -0.000020 0
0.000183 -0.000034 0
0.000213 -0.000052 0
0.000246 -0.000075 0
0.000281 -0.000104 0
0.000320 -0.000139 0
0.000363 -0.000180 0
0.000409 -0.000229 0
0.000460 -0.000285 0
0.000515 -0.000351 0
0.000576 -0.000426 0
0.000642 -0.000511 0
0.000714 -0.000607 0
0.000792 -0.000716 0
0.000878 -0.000839 0
0.000971 -0.000976 0
0.001073 -0.001130 0
0.001183 -0.001301 0
0.001303 -0.001491 0
0.001433 -0.001701 0
0.001574 -0.001933 0
0.001725 -0.002187 0
0.001888 -0.002463 0
0.002060 -0.002761 0
0.002243 -0.003080 0
0.002433 -0.003418 0
0.002629 -0.003769 0
0.002827 -0.004128 0
0.003022 -0.004484 0
0.003206 -0.004826 0
0.003372 -0.005138 0
0.003509 -0.005399 0
0.003605 -0.005590 0
0.003647 -0.005685 0
0.003623 -0.005663 0
0.003521 -0.005502 0
0.003333 -0.005189 0
0.003056 -0.004718 0
0.002692 -0.004094 0
0.002249 -0.003332 0
0.001741 -0.002459 0
0.001185 -0.001506 0
0.000599 -0.000507 0
0.000000 0.000000 0
0.000000 0.000000 0
0.000039 0.000004 0
0.000079 0.000007 0
0.000120 0.000007 0
0.000163 0.000004 0
0.000208 -0.000003 0
0.000256 -0.000016 0
0.000307 -0.000036 0
0.000363 -0.000063 0
0.000423 -0.000099 0
0.000488 -0.000145 0
0.000559 -0.000202 0
0.000637 -0.000271 0
0.000721 -0.000353 0
0.000814 -0.000450 0
0.000914 -0.000562 0
0.001025 -0.000692 0
0.001145 -0.000840 0
0.001276 -0.001009 0
0.001419 -0.001201 0
0.001575 -0.001417 0
0.001745 -0.001660 0
0.001930 -0.001933 0
0.002132 -0.002237 0
0.002351 -0.002577 0
0.002589 -0.002953 0
0.002847 -0.003370 0
0.003125 -0.003828 0
0.003425 -0.004331 0
0.003746 -0.004878 0
0.004088 -0.005470 0
0.004449 -0.006103 0
0.004827 -0.006773 0
0.005215 -0.007472 0
0.005609 -0.008186 0
0.005996 -0.008898 0
0.006365 -0.009583 0
0.006699 -0.010211 0
0.006977 -0.010743 0
0.007175 -0.011137 0
0.007268 -0.011344 0
0.007230 -0.011318 0
0.007038 -0.011017 0
0.006674 -0.010409 0
0.006130 -0.009481 0
0.005408 -0.008240 0
0.004525 -0.006718 0
0.003507 -0.004964 0
0.002389 -0.003043 0
0.001208 -0.001025 0
0.000000 0.000000 0
0.000000 0.000000 0
0.000058 0.000007 0
0.000117 0.000013 0
0.000178 0.000015 0
0.000242 0.000012 0
0.000309 0.000003 0
0.000380 -0.000016 0
0.000456 -0.000044 0
0.000539 -0.000083 0
0.000628 -0.000136 0
0.000725 -0.000204 0
0.000831 -0.000288 0
0.000946 -0.000390 0
0.001072 -0.000511 0
0.001209 -0.000654 0
0.001359 -0.000821 0
0.001523 -0.001013 0
0.001702 -0.001233 0
0.001896 -0.001483 0
0.002109 -0.001767 0
0.002340 -0.002088 0
0.002592 -0.002448 0
0.002867 -0.002851 0
0.003165 -0.003302 0
0.003490 -0.003804 0
0.003842 -0.004361 0
0.004223 -0.004977 0
0.004634 -0.005655 0
0.005077 -0.006398 0
0.005551 -0.007208 0
0.006057 -0.008083 0
0.006591 -0.009022 0
0.007149 -0.010017 0
0.007726 -0.011056 0
0.008311 -0.012122 0
0.008889 -0.013189 0
0.009444 -0.014222 0
0.009949 -0.015176 0
0.010375 -0.015997 0
0.010688 -0.016617 0
0.010849 -0.016967 0
0.010816 -0.016973 0
0.010555 -0.016567 0
0.010034 -0.015697 0
0.009238 -0.014337 0
0.008170 -0.012493 0
0.006849 -0.010207 0
0.005317 -0.007555 0
0.003627 -0.004638 0
0.001836 -0.001563 0
0.000000 0.000000 0
0.000000 0.000000 0
0.000076 0.000013 0
0.000154 0.000023 0
0.000234 0.000028 0
0.000317 0.000027 0
0.000405 0.000017 0
0.000498 -0.000005 0
0.000599 -0.000040 0
0.000707 -0.000091 0
0.000825 -0.000159 0
0.000953 -0.000247 0
0.001093 -0.000356 0
0.001245 -0.000489 0
0.001411 -0.000648 0
0.001592 -0.000836 0
0.001790 -0.001054 0
0.002005 -0.001306 0
0.002241 -0.001594 0
0.002497 -0.001923 0
0.002777 -0.002295 0
0.003081 -0.002715 0
0.003412 -0.003187 0
0.003772 -0.003716 0
0.004164 -0.004306 0
0.004588 -0.004963 0
0.005049 -0.005692 0
0.005547 -0.006498 0
0.006085 -0.007386 0
0.006664 -0.008359 0
0.007284 -0.009420 0
0.007945 -0.010568 0
0.008644 -0.011801 0
0.009377 -0.013110 0
0.010135 -0.014482 0
0.010906 -0.015896 0
0.011674 -0.017318 0
0.012414 -0.018705 0
0.013096 -0.020001 0
0.013682 -0.021132 0
0.014125 -0.022013 0
0.014374 -0.022547 0
0.014373 -0.022632 0
0.014070 -0.022171 0
0.013420 -0.021084 0
0.012397 -0.019326 0
0.010996 -0.016895 0
0.009243 -0.013843 0
0.007191 -0.010271 0
0.004912 -0.006315 0
0.002489 -0.002130 0
0.000000 0.000000 0
0.000000 0.000000 0
0.000093 0.000020 0
0.000188 0.000037 0
0.000286 0.000048 0
0.000388 0.000051 0
0.000496 0.000042 0
0.000611 0.000019 0
0.000734 -0.000021 0
0.000868 -0.000081 0
0.001012 -0.000162 0
0.001170 -0.000268 0
0.001342 -0.000401 0
0.001530 -0.000563 0
0.001735 -0.000757 0
0.001958 -0.000986 0
0.002202 -0.001254 0
0.002468 -0.001562 0
0.002758 -0.001916 0
0.003073 -0.002318 0
0.003417 -0.002774 0
0.003791 -0.003289 0
0.004197 -0.003866 0
0.004639 -0.004513 0
0.005118 -0.005235 0
0.005638 -0.006038 0
0.006201 -0.006929 0
0.006810 -0.007914 0
0.007467 -0.009000 0
0.008174 -0.010190 0
0.008931 -0.011489 0
0.009739 -0.012897 0
0.010594 -0.014411 0
0.011492 -0.016024 0
0.012424 -0.017720 0
0.013376 -0.019476 0
0.014329 -0.021254 0
0.015256 -0.023004 0
0.016121 -0.024658 0
0.016878 -0.026129 0
0.017470 -0.027310 0
0.017833 -0.028078 0
0.017894 -0.028300 0
0.017583 -0.027844 0
0.016838 -0.026597 0
0.015614 -0.024485 0
0.013901 -0.021490 0
0.011723 -0.017669 0
0.009144 -0.013145 0
0.006258 -0.008099 0
0.003175 -0.002735 0
0.000000 0.000000 0
0.000000 0.000000 0
0.000109 0.000031 0
0.000220 0.000057 0
0.000334 0.000077 0
0.000453 0.000086 0
0.000579 0.000082 0
0.000714 0.000059 0
0.000860 0.000017 0
0.001017 -0.000049 0
0.001188 -0.000141 0
0.001374 -0.000262 0
0.001577 -0.000416 0
0.001798 -0.000605 0
0.002040 -0.000831 0
0.002304 -0.001100 0
0.002593 -0.001413 0
0.002906 -0.001774 0
0.003248 -0.002189 0
0.003621 -0.002661 0
0.004025 -0.003195 0
0.004465 -0.003798 0
0.004943 -0.004474 0
0.005461 -0.005231 0
0.006024 -0.006076 0
0.006633 -0.007015 0
0.007292 -0.008058 0
0.008004 -0.009211 0
0.008772 -0.010481 0
0.009598 -0.011875 0
0.010483 -0.013397 0
0.011428 -0.015051 0
0.012429 -0.016833 0
0.013483 -0.018738 0
0.014581 -0.020749 0
0.015708 -0.022842 0
0.016843 -0.024977 0
0.017958 -0.027099 0
0.019011 -0.029131 0
0.019951 -0.030972 0
0.020712 -0.032497 0
0.021215 -0.033556 0
0.021372 -0.033982 0
0.021091 -0.033602 0
0.020288 -0.032261 0
0.018899 -0.029847 0
0.016897 -0.026318 0
0.014303 -0.021725 0
0.011191 -0.016214 0
0.007676 -0.010012 0
0.003899 -0.003385 0
0.000000 0.000000 0
0.000000 0.000000 0
0.000123 0.000045 0
0.000248 0.000085 0
0.000377 0.000117 0
0.000512 0.000136 0
0.000655 0.000138 0
0.000808 0.000121 0
0.000974 0.000079 0
0.001153 0.000009 0
0.001348 -0.000091 0
0.001561 -0.000225 0
0.001794 -0.000397 0
0.002048 -0.000609 0
0.002326 -0.000865 0
0.002628 -0.001169 0
0.002959 -0.001525 0
0.003318 -0.001936 0
0.003710 -0.002407 0
0.004136 -0.002943 0
0.004598 -0.003550 0
0.005100 -0.004234 0
0.005645 -0.005002 0
0.006236 -0.005861 0
0.006876 -0.006820 0
0.007568 -0.007886 0
0.008316 -0.009068 0
0.009124 -0.010376 0
0.009995 -0.011817 0
0.010931 -0.013401 0
0.011935 -0.015133 0
0.013007 -0.017018 0
0.014145 -0.019055 0
0.015346 -0.021239 0
0.016600 -0.023556 0
0.017895 -0.025981 0
0.019209 -0.028475 0
0.020511 -0.030979 0
0.021757 -0.033409 0
0.022892 -0.035654 0
0.023841 -0.037571 0
0.024512 -0.038981 0
0.024800 -0.039683 0
0.024590 -0.039458 0
0.023773 -0.038100 0
0.022257 -0.035446 0
0.019994 -0.031418 0
0.016996 -0.026052 0
0.013343 -0.019514 0
0.009175 -0.012080 0
0.004667 -0.004090 0
0.000000 0.000000 0
0.000000 0.000000 0
0.000135 0.000063 0
0.000272 0.000121 0
0.000414 0.000169 0
0.000562 0.000202 0
0.000721 0.000216 0
0.000891 0.000206 0
0.001075 0.000168 0
0.001274 0.000098 0
0.001493 -0.000007 0
0.001731 -0.000151 0
0.001991 -0.000338 0
0.002276 -0.000571 0
0.002587 -0.000853 0
0.002927 -0.001190 0
0.003297 -0.001584 0
0.003701 -0.002040 0
0.004140 -0.002563 0
0.004616 -0.003158 0
0.005133 -0.003832 0
0.005694 -0.004592 0
0.006302 -0.005444 0
0.006960 -0.006397 0
0.007672 -0.007459 0
0.008442 -0.008641 0
0.009273 -0.009952 0
0.010169 -0.011403 0
0.011135 -0.013003 0
0.012173 -0.014762 0
0.013286 -0.016690 0
0.014475 -0.018792 0
0.015740 -0.021070 0
0.017078 -0.023522 0
0.018482 -0.026136 0
0.019938 -0.028890 0
0.021425 -0.031744 0
0.022913 -0.034640 0
0.024358 -0.037490 0
0.025698 -0.040173 0
0.026853 -0.042529 0
0.027719 -0.044357 0
0.028174 -0.045413 0
0.028078 -0.045429 0
0.027291 -0.044139 0
0.025691 -0.041317 0
0.023200 -0.036831 0
0.019814 -0.030694 0
0.015615 -0.023084 0
0.010766 -0.014331 0
0.005486 -0.004859 0
0.000000 0.000000 0
0.000000 0.000000 0
0.000144 0.000087 0
0.000291 0.000167 0
0.000444 0.000236 0
0.000604 0.000288 0
0.000776 0.000317 0
0.000960 0.000319 0
0.001161 0.000289 0
0.001379 0.000223 0
0.001618 0.000116 0
0.001880 -0.000035 0
0.002167 -0.000234 0
0.002481 -0.000484 0
0.002824 -0.000790 0
0.003199 -0.001155 0
0.003607 -0.001584 0
0.004052 -0.002081 0
0.004536 -0.002651 0
0.005060 -0.003301 0
0.005630 -0.004036 0
0.006246 -0.004864 0
0.006913 -0.005793 0
0.007634 -0.006832 0
0.008413 -0.007990 0
0.009255 -0.009277 0
0.010162 -0.010706 0
0.011140 -0.012287 0
0.012193 -0.014033 0
0.013324 -0.015955 0
0.014538 -0.018065 0
0.015836 -0.020370 0
0.017219 -0.022877 0
0.018686 -0.025586 0
0.020230 -0.028489 0
0.021840 -0.031567 0
0.023496 -0.034784 0
0.025169 -0.038083 0
0.026815 -0.041373 0
0.028370 -0.044529 0
0.029747 -0.047376 0
0.030834 -0.049687 0
0.031491 -0.051180 0
0.031552 -0.051531 0
0.030844 -0.050404 0
0.029206 -0.047494 0
0.026524 -0.042603 0
0.022768 -0.035699 0
0.018018 -0.026966 0
0.012461 -0.016794 0
0.006361 -0.005704 0
0.000000 0.000000 0
0.000000 0.000000 0
0.000151 0.000116 0
0.000306 0.000225 0
0.000466 0.000321 0
0.000636 0.000397 0
0.000818 0.000446 0
0.001015 0.000465 0
0.001230 0.000447 0
0.001465 0.000388 0
0.001723 0.000283 0
0.002007 0.000129 0
0.002318 -0.000079 0
0.002659 -0.000344 0
0.003033 -0.000670 0
0.003441 -0.001060 0
0.003886 -0.001521 0
0.004371 -0.002055 0
0.004897 -0.002668 0
0.005468 -0.003367 0
0.006086 -0.004158 0
0.006755 -0.005049 0
0.007477 -0.006047 0
0.008258 -0.007164 0
0.009100 -0.008408 0
0.010008 -0.009792 0
0.010986 -0.011327 0
0.012040 -0.013028 0
0.013173 -0.014907 0
0.014391 -0.016979 0
0.015697 -0.019258 0
0.017096 -0.021754 0
0.018588 -0.024478 0
0.020175 -0.027434 0
0.021851 -0.030618 0
0.023608 -0.034018 0
0.025429 -0.037600 0
0.027285 -0.041312 0
0.029133 -0.045064 0
0.030910 -0.048727 0
0.032525 -0.052116 0
0.033857 -0.054978 0
0.034748 -0.056995 0
0.035010 -0.057781 0
0.034430 -0.056920 0
0.032804 -0.054016 0
0.029972 -0.048778 0
0.025869 -0.041116 0
0.020564 -0.031208 0
0.014269 -0.019501 0
0.007298 -0.006635 0
0.000000 0.000000 0
0.000000 0.000000 0
0.000155 0.000152 0
0.000314 0.000297 0
0.000480 0.000426 0
0.000656 0.000532 0
0.000846 0.000608 0
0.001053 0.000648 0
0.001280 0.000646 0
0.001530 0.000598 0
0.001805 0.000499 0
0.002109 0.000345 0
0.002443 0.000132 0
0.002810 -0.000144 0
0.003213 -0.000487 0
0.003653 -0.000900 0
0.004133 -0.001389 0
0.004655 -0.001956 0
0.005223 -0.002609 0
0.005837 -0.003353 0
0.006502 -0.004194 0
0.007221 -0.005141 0
0.007997 -0.006203 0
0.008833 -0.007390 0
0.009734 -0.008712 0
0.010705 -0.010183 0
0.011749 -0.011816 0
0.012873 -0.013625 0
0.014081 -0.015627 0
0.015378 -0.017837 0
0.016770 -0.020272 0
0.018262 -0.022948 0
0.019857 -0.025878 0
0.021556 -0.029071 0
0.023357 -0.032531 0
0.025255 -0.036248 0
0.027234 -0.040199 0
0.029270 -0.044334 0
0.031321 -0.048569 0
0.033325 -0.052774 0
0.035190 -0.056755 0
0.036787 -0.060240 0
0.037945 -0.062869 0
0.038448 -0.064197 0
0.038047 -0.063716 0
0.036485 -0.060920 0
0.033548 -0.055407 0
0.029125 -0.047001 0
0.023265 -0.035859 0
0.016200 -0.022490 0
0.008304 -0.007667 0
0.000000 0.000000 0
0.000000 0.000000 0
0.000156 0.000197 0
0.000315 0.000385 0
0.000483 0.000554 0
0.000663 0.000697 0
0.000858 0.000806 0
0.001072 0.000873 0
0.001309 0.000893 0
0.001571 0.000861 0
0.001862 0.000772 0
0.002184 0.000621 0
0.002540 0.000405 0
0.002932 0.000120 0
0.003362 -0.000237 0
0.003833 -0.000670 0
0.004346 -0.001183 0
0.004905 -0.001781 0
0.005512 -0.002469 0
0.006170 -0.003254 0
0.006880 -0.004141 0
0.007647 -0.005140 0
0.008473 -0.006259 0
0.009363 -0.007509 0
0.010320 -0.008902 0
0.011350 -0.010451 0
0.012456 -0.012172 0
0.013645 -0.014080 0
0.014923 -0.016194 0
0.016295 -0.018532 0
0.017767 -0.021113 0
0.019345 -0.023957 0
0.021035 -0.027083 0
0.022839 -0.030505 0
0.024759 -0.034233 0
0.026791 -0.038266 0
0.028923 -0.042587 0
0.031135 -0.047156 0
0.033389 -0.051895 0
0.035624 -0.056675 0
0.037749 -0.061299 0
0.039629 -0.065478 0
0.041082 -0.068813 0
0.041866 -0.070794 0
0.041692 -0.070816 0
0.040249 -0.068245 0
0.037255 -0.062540 0
0.032542 -0.053412 0
0.026130 -0.040976 0
0.018265 -0.025801 0
0.009383 -0.008814 0
0.000000 0.000000 0
0.000000 0.000000 0
0.000152 0.000251 0
0.000309 0.000491 0
0.000475 0.000710 0
0.000655 0.000898 0
0.000852 0.001046 0
0.001071 0.001147 0
0.001315 0.001194 0
0.001587 0.001182 0
0.001891 0.001106 0
0.002230 0.000962 0
0.002606 0.000746 0
0.003021 0.000456 0
0.003478 0.000087 0
0.003978 -0.000364 0
0.004525 -0.000900 0
0.005120 -0.001526 0
0.005766 -0.002246 0
0.006465 -0.003068 0
0.007220 -0.003997 0
0.008033 -0.005042 0
0.008909 -0.006213 0
0.009850 -0.007520 0
0.010861 -0.008977 0
0.011948 -0.010598 0
0.013113 -0.012398 0
0.014365 -0.014396 0
0.015708 -0.016612 0
0.017150 -0.019067 0
0.018697 -0.021785 0
0.020357 -0.024788 0
0.022136 -0.028100 0
0.024039 -0.031743 0
0.026071 -0.035733 0
0.028231 -0.040079 0
0.030511 -0.044774 0
0.032894 -0.049786 0
0.035348 -0.055048 0
0.037815 -0.060437 0
0.040207 -0.065755 0
0.042386 -0.070699 0
0.044158 -0.074836 0
0.045259 -0.077589 0
0.045361 -0.078246 0
0.044090 -0.076028 0
0.041092 -0.070228 0
0.036126 -0.060409 0
0.029166 -0.046617 0
0.020470 -0.029477 0
0.010541 -0.010093 0
0.000000 0.000000 0
0.000000 0.000000 0
0.000145 0.000316 0
0.000294 0.000619 0
0.000454 0.000897 0
0.000630 0.001139 0
0.000826 0.001335 0
0.001046 0.001477 0
0.001294 0.001557 0
0.001574 0.001570 0
0.001890 0.001511 0
0.002244 0.001377 0
0.002638 0.001163 0
0.003076 0.000869 0
0.003559 0.000490 0
0.004089 0.000023 0
0.004669 -0.000534 0
0.005300 -0.001185 0
0.005984 -0.001936 0
0.006724 -0.002792 0
0.007523 -0.003759 0
0.008383 -0.004847 0
0.009307 -0.006065 0
0.010299 -0.007425 0
0.011363 -0.008939 0
0.012504 -0.010624 0
0.013727 -0.012496 0
0.015039 -0.014576 0
0.016445 -0.016886 0
0.017953 -0.019449 0
0.019571 -0.022293 0
0.021308 -0.025445 0
0.023171 -0.028935 0
0.025169 -0.032791 0
0.027307 -0.037038 0
0.029588 -0.041694 0
0.032011 -0.046764 0
0.034561 -0.052229 0
0.037211 -0.058033 0
0.039911 -0.064064 0
0.042573 -0.070127 0
0.045061 -0.075908 0
0.047173 -0.080945 0
0.048625 -0.084594 0
0.049047 -0.086029 0
0.048003 -0.084308 0
0.045056 -0.078524 0
0.039875 -0.068056 0
0.032378 -0.052845 0
0.022821 -0.033565 0
0.011782 -0.011520 0
0.000000 0.000000 0
0.000000 0.000000 0
0.000132 0.000394 0
0.000269 0.000773 0
0.000419 0.001122 0
0.000586 0.001429 0
0.000776 0.001681 0
0.000994 0.001871 0
0.001244 0.001990 0
0.001529 0.002033 0
0.001855 0.001995 0
0.002222 0.001873 0
0.002634 0.001664 0
0.003094 0.001367 0
0.003603 0.000979 0
0.004163 0.000497 0
0.004775 -0.000080 0
0.005443 -0.000756 0
0.006167 -0.001535 0
0.006949 -0.002423 0
0.007792 -0.003426 0
0.008699 -0.004554 0
0.009672 -0.005815 0
0.010715 -0.007222 0
0.011831 -0.008789 0
0.013027 -0.010532 0
0.014306 -0.012469 0
0.015676 -0.014623 0
0.017143 -0.017018 0
0.018715 -0.019681 0
0.020402 -0.022642 0
0.022212 -0.025935 0
0.024156 -0.029594 0
0.026243 -0.033655 0
0.028482 -0.038153 0
0.030880 -0.043117 0
0.033439 -0.048564 0
0.036150 -0.054490 0
0.038993 -0.060854 0
0.041921 -0.067558 0
0.044855 -0.074414 0
0.047659 -0.081107 0
0.050128 -0.087145 0
0.051957 -0.091818 0
0.052741 -0.094183 0
0.051977 -0.093117 0
0.049136 -0.087478 0
0.043786 -0.076414 0
0.035765 -0.059724 0
0.025321 -0.038114 0
0.013109 -0.013114 0
0.000000 0.000000 0
0.000000 0.000000 0
0.000113 0.000488 0
0.000232 0.000958 0
0.000366 0.001391 0
0.000519 0.001775 0
0.000699 0.002094 0
0.000911 0.002340 0
0.001159 0.002505 0
0.001448 0.002582 0
0.001781 0.002568 0
0.002161 0.002460 0
0.002591 0.002257 0
0.003072 0.001958 0
0.003607 0.001561 0
0.004197 0.001065 0
0.004844 0.000468 0
0.005549 -0.000232 0
0.006314 -0.001039 0
0.007140 -0.001959 0
0.008029 -0.002997 0
0.008984 -0.004161 0
0.010007 -0.005463 0
0.011101 -0.006913 0
0.012271 -0.008528 0
0.013522 -0.010323 0
0.014858 -0.012320 0
0.016286 -0.014541 0
0.017813 -0.017014 0
0.019449 -0.019768 0
0.021202 -0.022838 0
0.023083 -0.026262 0
0.025104 -0.030082 0
0.027276 -0.034342 0
0.029612 -0.039085 0
0.032122 -0.044353 0
0.034811 -0.050177 0
0.037678 -0.056571 0
0.040707 -0.063512 0
0.043860 -0.070919 0
0.047064 -0.078618 0
0.050188 -0.086294 0
0.053023 -0.093435 0
0.055253 -0.099267 0
0.056433 -0.102726 0
0.055998 -0.102486 0
0.053318 -0.097138 0
0.047845 -0.085547 0
0.039320 -0.067320 0
0.027968 -0.043174 0
0.014520 -0.014894 0
0.000000 0.000000 0
0.000000 0.000000 0
0.000087 0.000601 0
0.000182 0.001179 0
0.000293 0.001714 0
0.000427 0.002187 0
0.000592 0.002586 0
0.000794 0.002897 0
0.001037 0.003113 0
0.001326 0.003230 0
0.001665 0.003243 0
0.002056 0.003151 0
0.002503 0.002954 0
0.003007 0.002652 0
0.003569 0.002245 0
0.004191 0.001733 0
0.004874 0.001115 0
0.005618 0.000390 0
0.006426 -0.000446 0
0.007298 -0.001396 0
0.008235 -0.002468 0
0.009241 -0.003668 0
0.010316 -0.005007 0
0.011465 -0.006499 0
0.012690 -0.008157 0
0.013997 -0.010000 0
0.015391 -0.012051 0
0.016878 -0.014333 0
0.018466 -0.016876 0
0.020165 -0.019714 0
0.021983 -0.022885 0
0.023934 -0.026432 0
0.026030 -0.030405 0
0.028286 -0.034854 0
0.030715 -0.039835 0
0.033331 -0.045403 0
0.036145 -0.051605 0
0.039160 -0.058473 0
0.042369 -0.066005 0
0.045741 -0.074144 0
0.049209 -0.082732 0
0.052651 -0.091464 0
0.055859 -0.099812 0
0.058504 -0.106944 0
0.060112 -0.111667 0
0.060048 -0.112440 0
0.057582 -0.107547 0
0.052034 -0.095513 0
0.043030 -0.075695 0
0.030754 -0.048796 0
0.016013 -0.016880 0
0.000000 0.000000 0
0.000000 0.000000 0
0.000053 0.000736 0
0.000115 0.001445 0
0.000196 0.002100 0
0.000305 0.002681 0
0.000449 0.003170 0
0.000635 0.003557 0
0.000870 0.003832 0
0.001156 0.003992 0
0.001500 0.004034 0
0.001902 0.003958 0
0.002366 0.003765 0
0.002893 0.003459 0
0.003484 0.003039 0
0.004140 0.002509 0
0.004862 0.001868 0
0.005649 0.001116 0
0.006503 0.000250 0
0.007425 -0.000733 0
0.008414 -0.001838 0
0.009474 -0.003073 0
0.010605 -0.004449 0
0.011811 -0.005979 0
0.013095 -0.007678 0
0.014461 -0.009565 0
0.015916 -0.011664 0
0.017464 -0.014001 0
0.019114 -0.016608 0
0.020877 -0.019523 0
0.022762 -0.022786 0
0.024782 -0.026449 0
0.026952 -0.030564 0
0.029288 -0.035195 0
0.031806 -0.040408 0
0.034525 -0.046270 0
0.037458 -0.052847 0
0.040615 -0.060193 0
0.043996 -0.068330 0
0.047578 -0.077226 0
0.051304 -0.086750 0
0.055059 -0.096610 0
0.058638 -0.106270 0
0.061707 -0.114845 0