# vtk DataFile Version 2.0
generated by CFD-lab course output (written by Tobias Neckel) 
ASCII

DATASET STRUCTURED_GRID
DIMENSIONS  51 51 1 
POINTS 2601 float

0.000000 0.000000 0
0.020000 0.000000 0
0.040000 0.000000 0
0.060000 0.000000 0
0.080000 0.000000 0
0.100000 0.000000 0
0.120000 0.000000 0
0.140000 0.000000 0
0.160000 0.000000 0
0.180000 0.000000 0
0.200000 0.000000 0
0.220000 0.000000 0
0.240000 0.000000 0
0.260000 0.000000 0
0.280000 0.000000 0
0.300000 0.000000 0
0.320000 0.000000 0
0.340000 0.000000 0
0.360000 0.000000 0
0.380000 0.000000 0
0.400000 0.000000 0
0.420000 0.000000 0
0.440000 0.000000 0
0.460000 0.000000 0
0.480000 0.000000 0
0.500000 0.000000 0
0.520000 0.000000 0
0.540000 0.000000 0
0.560000 0.000000 0
0.580000 0.000000 0
0.600000 0.000000 0
0.620000 0.000000 0
0.640000 0.000000 0
0.660000 0.000000 0
0.680000 0.000000 0
0.700000 0.000000 0
0.720000 0.000000 0
0.740000 0.000000 0
0.760000 0.000000 0
0.780000 0.000000 0
0.800000 0.000000 0
0.820000 0.000000 0
0.840000 0.000000 0
0.860000 0.000000 0
0.880000 0.000000 0
0.900000 0.000000 0
0.920000 0.000000 0
0.940000 0.000000 0
0.960000 0.000000 0
0.980000 0.000000 0
1.000000 0.000000 0
0.000000 0.020000 0
0.020000 0.020000 0
0.040000 0.020000 0
0.060000 0.020000 0
0.080000 0.020000 0
0.100000 0.020000 0
0.120000 0.020000 0
0.140000 0.020000 0
0.160000 0.020000 0
0.180000 0.020000 0
0.200000 0.020000 0
0.220000 0.020000 0
0.240000 0.020000 0
0.260000 0.020000 0
0.280000 0.020000 0
0.300000 0.020000 0
0.320000 0.020000 0
0.340000 0.020000 0
0.360000 0.020000 0
0.380000 0.020000 0
0.400000 0.020000 0
0.420000 0.020000 0
0.440000 0.020000 0
0.460000 0.020000 0
0.480000 0.020000 0
0.500000 0.020000 0
0.520000 0.020000 0
0.540000 0.020000 0
0.560000 0.020000 0
0.580000 0.020000 0
0.600000 0.020000 0
0.620000 0.020000 0
0.640000 0.020000 0
0.660000 0.020000 0
0.680000 0.020000 0
0.700000 0.020000 0
0.720000 0.020000 0
0.740000 0.020000 0
0.760000 0.020000 0
0.780000 0.020000 0
0.800000 0.020000 0
0.820000 0.020000 0
0.840000 0.020000 0
0.860000 0.020000 0
0.880000 0.020000 0
0.900000 0.020000 0
0.920000 0.020000 0
0.940000 0.020000 0
0.960000 0.020000 0
0.980000 0.020000 0
1.000000 0.020000 0
0.000000 0.040000 0
0.020000 0.040000 0
0.040000 0.040000 0
0.060000 0.040000 0
0.080000 0.040000 0
0.100000 0.040000 0
0.120000 0.040000 0
0.140000 0.040000 0
0.160000 0.040000 0
0.180000 0.040000 0
0.200000 0.040000 0
0.220000 0.040000 0
0.240000 0.040000 0
0.260000 0.040000 0
0.280000 0.040000 0
0.300000 0.040000 0
0.320000 0.040000 0
0.340000 0.040000 0
0.360000 0.040000 0
0.380000 0.040000 0
0.400000 0.040000 0
0.420000 0.040000 0
0.440000 0.040000 0
0.460000 0.040000 0
0.480000 0.040000 0
0.500000 0.040000 0
0.520000 0.040000 0
0.540000 0.040000 0
0.560000 0.040000 0
0.580000 0.040000 0
0.600000 0.040000 0
0.620000 0.040000 0
0.640000 0.040000 0
0.660000 0.040000 0
0.680000 0.040000 0
0.700000 0.040000 0
0.720000 0.040000 0
0.740000 0.040000 0
0.760000 0.040000 0
0.780000 0.040000 0
0.800000 0.040000 0
0.820000 0.040000 0
0.840000 0.040000 0
0.860000 0.040000 0
0.880000 0.040000 0
0.900000 0.040000 0
0.920000 0.040000 0
0.940000 0.040000 0
0.960000 0.040000 0
0.980000 0.040000 0
1.000000 0.040000 0
0.000000 0.060000 0
0.020000 0.060000 0
0.040000 0.060000 0
0.060000 0.060000 0
0.080000 0.060000 0
0.100000 0.060000 0
0.120000 0.060000 0
0.140000 0.060000 0
0.160000 0.060000 0
0.180000 0.060000 0
0.200000 0.060000 0
0.220000 0.060000 0
0.240000 0.060000 0
0.260000 0.060000 0
0.280000 0.060000 0
0.300000 0.060000 0
0.320000 0.060000 0
0.340000 0.060000 0
0.360000 0.060000 0
0.380000 0.060000 0
0.400000 0.060000 0
0.420000 0.060000 0
0.440000 0.060000 0
0.460000 0.060000 0
0.480000 0.060000 0
0.500000 0.060000 0
0.520000 0.060000 0
0.540000 0.060000 0
0.560000 0.060000 0
0.580000 0.060000 0
0.600000 0.060000 0
0.620000 0.060000 0
0.640000 0.060000 0
0.660000 0.060000 0
0.680000 0.060000 0
0.700000 0.060000 0
0.720000 0.060000 0
0.740000 0.060000 0
0.760000 0.060000 0
0.780000 0.060000 0
0.800000 0.060000 0
0.820000 0.060000 0
0.840000 0.060000 0
0.860000 0.060000 0
0.880000 0.060000 0
0.900000 0.060000 0
0.920000 0.060000 0
0.940000 0.060000 0
0.960000 0.060000 0
0.980000 0.060000 0
1.000000 0.060000 0
0.000000 0.080000 0
0.020000 0.080000 0
0.040000 0.080000 0
0.060000 0.080000 0
0.080000 0.080000 0
0.100000 0.080000 0
0.120000 0.080000 0
0.140000 0.080000 0
0.160000 0.080000 0
0.180000 0.080000 0
0.200000 0.080000 0
0.220000 0.080000 0
0.240000 0.080000 0
0.260000 0.080000 0
0.280000 0.080000 0
0.300000 0.080000 0
0.320000 0.080000 0
0.340000 0.080000 0
0.360000 0.080000 0
0.380000 0.080000 0
0.400000 0.080000 0
0.420000 0.080000 0
0.440000 0.080000 0
0.460000 0.080000 0
0.480000 0.080000 0
0.500000 0.080000 0
0.520000 0.080000 0
0.540000 0.080000 0
0.560000 0.080000 0
0.580000 0.080000 0
0.600000 0.080000 0
0.620000 0.080000 0
0.640000 0.080000 0
0.660000 0.080000 0
0.680000 0.080000 0
0.700000 0.080000 0
0.720000 0.080000 0
0.740000 0.080000 0
0.760000 0.080000 0
0.780000 0.080000 0
0.800000 0.080000 0
0.820000 0.080000 0
0.840000 0.080000 0
0.860000 0.080000 0
0.880000 0.080000 0
0.900000 0.080000 0
0.920000 0.080000 0
0.940000 0.080000 0
0.960000 0.080000 0
0.980000 0.080000 0
1.000000 0.080000 0
0.000000 0.100000 0
0.020000 0.100000 0
0.040000 0.100000 0
0.060000 0.100000 0
0.080000 0.100000 0
0.100000 0.100000 0
0.120000 0.100000 0
0.140000 0.100000 0
0.160000 0.100000 0
0.180000 0.100000 0
0.200000 0.100000 0
0.220000 0.100000 0
0.240000 0.100000 0
0.260000 0.100000 0
0.280000 0.100000 0
0.300000 0.100000 0
0.320000 0.100000 0
0.340000 0.100000 0
0.360000 0.100000 0
0.380000 0.100000 0
0.400000 0.100000 0
0.420000 0.100000 0
0.440000 0.100000 0
0.460000 0.100000 0
0.480000 0.100000 0
0.500000 0.100000 0
0.520000 0.100000 0
0.540000 0.100000 0
0.560000 0.100000 0
0.580000 0.100000 0
0.600000 0.100000 0
0.620000 0.100000 0
0.640000 0.100000 0
0.660000 0.100000 0
0.680000 0.100000 0
0.700000 0.100000 0
0.720000 0.100000 0
0.740000 0.100000 0
0.760000 0.100000 0
0.780000 0.100000 0
0.800000 0.100000 0
0.820000 0.100000 0
0.840000 0.100000 0
0.860000 0.100000 0
0.880000 0.100000 0
0.900000 0.100000 0
0.920000 0.100000 0
0.940000 0.100000 0
0.960000 0.100000 0
0.980000 0.100000 0
1.000000 0.100000 0
0.000000 0.120000 0
0.020000 0.120000 0
0.040000 0.120000 0
0.060000 0.120000 0
0.080000 0.120000 0
0.100000 0.120000 0
0.120000 0.120000 0
0.140000 0.120000 0
0.160000 0.120000 0
0.180000 0.120000 0
0.200000 0.120000 0
0.220000 0.120000 0
0.240000 0.120000 0
0.260000 0.120000 0
0.280000 0.120000 0
0.300000 0.120000 0
0.320000 0.120000 0
0.340000 0.120000 0
0.360000 0.120000 0
0.380000 0.120000 0
0.400000 0.120000 0
0.420000 0.120000 0
0.440000 0.120000 0
0.460000 0.120000 0
0.480000 0.120000 0
0.500000 0.120000 0
0.520000 0.120000 0
0.540000 0.120000 0
0.560000 0.120000 0
0.580000 0.120000 0
0.600000 0.120000 0
0.620000 0.120000 0
0.640000 0.120000 0
0.660000 0.120000 0
0.680000 0.120000 0
0.700000 0.120000 0
0.720000 0.120000 0
0.740000 0.120000 0
0.760000 0.120000 0
0.780000 0.120000 0
0.800000 0.120000 0
0.820000 0.120000 0
0.840000 0.120000 0
0.860000 0.120000 0
0.880000 0.120000 0
0.900000 0.120000 0
0.920000 0.120000 0
0.940000 0.120000 0
0.960000 0.120000 0
0.980000 0.120000 0
1.000000 0.120000 0
0.000000 0.140000 0
0.020000 0.140000 0
0.040000 0.140000 0
0.060000 0.140000 0
0.080000 0.140000 0
0.100000 0.140000 0
0.120000 0.140000 0
0.140000 0.140000 0
0.160000 0.140000 0
0.180000 0.140000 0
0.200000 0.140000 0
0.220000 0.140000 0
0.240000 0.140000 0
0.260000 0.140000 0
0.280000 0.140000 0
0.300000 0.140000 0
0.320000 0.140000 0
0.340000 0.140000 0
0.360000 0.140000 0
0.380000 0.140000 0
0.400000 0.140000 0
0.420000 0.140000 0
0.440000 0.140000 0
0.460000 0.140000 0
0.480000 0.140000 0
0.500000 0.140000 0
0.520000 0.140000 0
0.540000 0.140000 0
0.560000 0.140000 0
0.580000 0.140000 0
0.600000 0.140000 0
0.620000 0.140000 0
0.640000 0.140000 0
0.660000 0.140000 0
0.680000 0.140000 0
0.700000 0.140000 0
0.720000 0.140000 0
0.740000 0.140000 0
0.760000 0.140000 0
0.780000 0.140000 0
0.800000 0.140000 0
0.820000 0.140000 0
0.840000 0.140000 0
0.860000 0.140000 0
0.880000 0.140000 0
0.900000 0.140000 0
0.920000 0.140000 0
0.940000 0.140000 0
0.960000 0.140000 0
0.980000 0.140000 0
1.000000 0.140000 0
0.000000 0.160000 0
0.020000 0.160000 0
0.040000 0.160000 0
0.060000 0.160000 0
0.080000 0.160000 0
0.100000 0.160000 0
0.120000 0.160000 0
0.140000 0.160000 0
0.160000 0.160000 0
0.180000 0.160000 0
0.200000 0.160000 0
0.220000 0.160000 0
0.240000 0.160000 0
0.260000 0.160000 0
0.280000 0.160000 0
0.300000 0.160000 0
0.320000 0.160000 0
0.340000 0.160000 0
0.360000 0.160000 0
0.380000 0.160000 0
0.400000 0.160000 0
0.420000 0.160000 0
0.440000 0.160000 0
0.460000 0.160000 0
0.480000 0.160000 0
0.500000 0.160000 0
0.520000 0.160000 0
0.540000 0.160000 0
0.560000 0.160000 0
0.580000 0.160000 0
0.600000 0.160000 0
0.620000 0.160000 0
0.640000 0.160000 0
0.660000 0.160000 0
0.680000 0.160000 0
0.700000 0.160000 0
0.720000 0.160000 0
0.740000 0.160000 0
0.760000 0.160000 0
0.780000 0.160000 0
0.800000 0.160000 0
0.820000 0.160000 0
0.840000 0.160000 0
0.860000 0.160000 0
0.880000 0.160000 0
0.900000 0.160000 0
0.920000 0.160000 0
0.940000 0.160000 0
0.960000 0.160000 0
0.980000 0.160000 0
1.000000 0.160000 0
0.000000 0.180000 0
0.020000 0.180000 0
0.040000 0.180000 0
0.060000 0.180000 0
0.080000 0.180000 0
0.100000 0.180000 0
0.120000 0.180000 0
0.140000 0.180000 0
0.160000 0.180000 0
0.180000 0.180000 0
0.200000 0.180000 0
0.220000 0.180000 0
0.240000 0.180000 0
0.260000 0.180000 0
0.280000 0.180000 0
0.300000 0.180000 0
0.320000 0.180000 0
0.340000 0.180000 0
0.360000 0.180000 0
0.380000 0.180000 0
0.400000 0.180000 0
0.420000 0.180000 0
0.440000 0.180000 0
0.460000 0.180000 0
0.480000 0.180000 0
0.500000 0.180000 0
0.520000 0.180000 0
0.540000 0.180000 0
0.560000 0.180000 0
0.580000 0.180000 0
0.600000 0.180000 0
0.620000 0.180000 0
[...]
POINT_DATA 2601 

VECTORS velocity float
0.000000 0.000000 0
0.000000 0.000000 0
0.000000 0.000000 0
0.000000 0.000000 0
0.000000 0.000000 0
0.000000 0.000000 0
0.000000 0.000000 0
0.000000 0.000000 0
0.000000 0.000000 0
0.000000 0.000000 0
0.000000 0.000000 0
0.000000 0.000000 0
0.000000 0.000000 0
0.000000 0.000000 0
0.000000 0.000000 0
0.000000 0.000000 0
0.000000 0.000000 0
0.000000 0.000000 0
0.000000 0.000000 0
0.000000 0.000000 0
0.000000 0.000000 0
0.000000 0.000000 0
0.000000 0.000000 0
0.000000 0.000000 0
0.000000 0.000000 0
0.000000 0.000000 0
0.000000 0.000000 0
0.000000 0.000000 0
0.000000 0.000000 0
0.000000 0.000000 0
0.000000 0.000000 0
0.000000 0.000000 0
0.000000 0.000000 0
0.000000 0.000000 0
0.000000 0.000000 0
0.000000 0.000000 0
0.000000 0.000000 0
0.000000 0.000000 0
0.000000 0.000000 0
0.000000 0.000000 0
0.000000 0.000000 0
0.000000 0.000000 0
0.000000 0.000000 0
0.000000 0.000000 0
0.000000 0.000000 0
0.000000 0.000000 0
0.000000 0.000000 0
0.000000 0.000000 0
0.000000 0.000000 0
0.000000 0.000000 0
0.000000 0.000000 0
0.000000 0.000000 0
0.000014 -0.000016 0
0.000027 -0.000032 0
0.000042 -0.000049 0
0.000058 -0.000069 0
0.000074 -0.000091 0
0.000093 -0.000115 0
0.000114 -0.000144 0
0.000136 -0.000176 0
0.000162 -0.000214 0
0.000190 -0.000257 0
0.000222 -0.000305 0
0.000257 -0.000361 0
0.000297 -0.000424 0
0.000340 -0.000494 0
0.000389 -0.000574 0
0.000442 -0.000662 0
0.000502 -0.000762 0
0.000567 -0.000872 0
0.000639 -0.000995 0
0.000718 -0.001132 0
0.000804 -0.001283 0
0.000899 -0.001451 0
0.001002 -0.001635 0
0.001116 -0.001839 0
0.001239 -0.002063 0
0.001372 -0.002308 0
0.001517 -0.002576 0
0.001673 -0.002868 0
0.001841 -0.003182 0
0.002019 -0.003520 0
0.002207 -0.003878 0
0.002403 -0.004254 0
0.002605 -0.004643 0
0.002809 -0.005036 0
0.003009 -0.005422 0
0.003198 -0.005788 0
0.003368 -0.006115 0
0.003507 -0.006381 0
0.003604 -0.006562 0
0.003646 -0.006632 0
0.003619 -0.006568 0
0.003514 -0.006346 0
0.003321 -0.005954 0
0.003040 -0.005388 0
0.002673 -0.004655 0
0.002229 -0.003775 0
0.001722 -0.002777 0
0.001170 -0.001697 0
0.000591 -0.000571 0
0.000000 0.000000 0
0.000000 0.000000 0
0.000027 -0.000030 0
0.000054 -0.000062 0
0.000083 -0.000096 0
0.000114 -0.000134 0
0.000148 -0.000177 0
0.000185 -0.000226 0
0.000225 -0.000282 0
0.000271 -0.000346 0
0.000321 -0.000420 0
0.000378 -0.000505 0
0.000441 -0.000601 0
0.000511 -0.000711 0
0.000590 -0.000835 0
0.000677 -0.000975 0
0.000773 -0.001132 0
0.000879 -0.001308 0
0.000997 -0.001505 0
0.001127 -0.001724 0
0.001269 -0.001968 0
0.001426 -0.002238 0
0.001597 -0.002537 0
0.001785 -0.002868 0
0.001990 -0.003234 0
0.002214 -0.003636 0
0.002458 -0.004078 0
0.002722 -0.004563 0
0.003008 -0.005092 0
0.003317 -0.005667 0
0.003647 -0.006289 0
0.004000 -0.006955 0
0.004372 -0.007664 0
0.004760 -0.008408 0
0.005160 -0.009177 0
0.005564 -0.009957 0
0.005961 -0.010726 0
0.006339 -0.011457 0
0.006679 -0.012113 0
0.006961 -0.012654 0
0.007161 -0.013031 0
0.007253 -0.013191 0
0.007211 -0.013084 0
0.007012 -0.012666 0
0.006641 -0.011906 0
0.006089 -0.010794 0
0.005362 -0.009342 0
0.004477 -0.007587 0
0.003464 -0.005589 0
0.002356 -0.003419 0
0.001190 -0.001150 0
0.000000 0.000000 0
0.000000 0.000000 0
0.000040 -0.000044 0
0.000081 -0.000089 0
0.000123 -0.000138 0
0.000169 -0.000193 0
0.000219 -0.000255 0
0.000273 -0.000326 0
0.000334 -0.000408 0
0.000401 -0.000503 0
0.000477 -0.000612 0
0.000561 -0.000736 0
0.000655 -0.000879 0
0.000759 -0.001041 0
0.000875 -0.001224 0
0.001005 -0.001431 0
0.001148 -0.001663 0
0.001306 -0.001923 0
0.001481 -0.002213 0
0.001673 -0.002537 0
0.001884 -0.002896 0
0.002116 -0.003295 0
0.002370 -0.003736 0
0.002648 -0.004224 0
0.002951 -0.004762 0
0.003282 -0.005355 0
0.003641 -0.006006 0
0.004031 -0.006719 0
0.004453 -0.007497 0
0.004907 -0.008343 0
0.005394 -0.009258 0
0.005913 -0.010239 0
0.006461 -0.011283 0
0.007034 -0.012381 0
0.007625 -0.013520 0
0.008224 -0.014677 0
0.008815 -0.015824 0
0.009380 -0.016920 0
0.009894 -0.017915 0
0.010326 -0.018747 0
0.010641 -0.019345 0
0.010799 -0.019629 0
0.010761 -0.019521 0
0.010491 -0.018951 0
0.009961 -0.017866 0
0.009157 -0.016242 0
0.008084 -0.014094 0
0.006765 -0.011473 0
0.005243 -0.008468 0
0.003570 -0.005187 0
0.001806 -0.001746 0
0.000000 0.000000 0
0.000000 0.000000 0
0.000052 -0.000054 0
0.000105 -0.000111 0
0.000161 -0.000173 0
0.000221 -0.000242 0
0.000286 -0.000321 0
0.000358 -0.000413 0
0.000438 -0.000518 0
0.000526 -0.000640 0
0.000625 -0.000781 0
0.000736 -0.000943 0
0.000860 -0.001129 0
0.000998 -0.001340 0
0.001151 -0.001579 0
0.001321 -0.001849 0
0.001510 -0.002153 0
0.001718 -0.002492 0
0.001948 -0.002871 0
0.002200 -0.003293 0
0.002478 -0.003762 0
0.002782 -0.004282 0
0.003114 -0.004857 0
0.003478 -0.005493 0
0.003875 -0.006194 0
0.004307 -0.006965 0
0.004776 -0.007811 0
0.005284 -0.008738 0
0.005834 -0.009750 0
0.006426 -0.010850 0
0.007060 -0.012040 0
0.007736 -0.013317 0
0.008451 -0.014679 0
0.009199 -0.016114 0
0.009973 -0.017606 0
0.010759 -0.019129 0
0.011540 -0.020647 0
0.012291 -0.022111 0
0.012982 -0.023456 0
0.013573 -0.024602 0
0.014018 -0.025455 0
0.014264 -0.025909 0
0.014257 -0.025856 0
0.013945 -0.025192 0
0.013286 -0.023839 0
0.012255 -0.021752 0
0.010853 -0.018939 0
0.009108 -0.015464 0
0.007074 -0.011440 0
0.004826 -0.007020 0
0.002443 -0.002365 0
0.000000 0.000000 0
0.000000 0.000000 0
0.000063 -0.000062 0
0.000128 -0.000127 0
0.000196 -0.000198 0
0.000269 -0.000279 0
0.000349 -0.000372 0
0.000437 -0.000480 0
0.000535 -0.000605 0
0.000644 -0.000752 0
0.000766 -0.000922 0
0.000902 -0.001118 0
0.001054 -0.001343 0
0.001224 -0.001600 0
0.001413 -0.001891 0
0.001623 -0.002220 0
0.001855 -0.002589 0
0.002111 -0.003003 0
0.002394 -0.003465 0
0.002704 -0.003979 0
0.003044 -0.004550 0
0.003417 -0.005182 0
0.003824 -0.005881 0
0.004269 -0.006653 0
0.004753 -0.007504 0
0.005280 -0.008440 0
0.005852 -0.009467 0
0.006471 -0.010591 0
0.007140 -0.011819 0
0.007860 -0.013153 0
0.008631 -0.014597 0
0.009453 -0.016151 0
0.010324 -0.017809 0
0.011237 -0.019561 0
0.012183 -0.021390 0
0.013149 -0.023267 0
0.014114 -0.025151 0
0.015051 -0.026984 0
0.015923 -0.028692 0
0.016683 -0.030179 0
0.017276 -0.031328 0
0.017634 -0.032006 0
0.017689 -0.032073 0
0.017370 -0.031388 0
0.016617 -0.029836 0
0.015390 -0.027345 0
0.013682 -0.023906 0
0.011520 -0.019589 0
0.008973 -0.014533 0
0.006133 -0.008936 0
0.003108 -0.003014 0
0.000000 0.000000 0
0.000000 0.000000 0
0.000073 -0.000065 0
0.000148 -0.000135 0
0.000228 -0.000211 0
0.000313 -0.000299 0
0.000406 -0.000402 0
0.000509 -0.000523 0
0.000624 -0.000665 0
0.000752 -0.000833 0
0.000896 -0.001028 0
0.001056 -0.001254 0
0.001236 -0.001514 0
0.001437 -0.001812 0
0.001660 -0.002151 0
0.001907 -0.002533 0
0.002181 -0.002963 0
0.002483 -0.003445 0
0.002815 -0.003983 0
0.003180 -0.004581 0
0.003580 -0.005245 0
0.004018 -0.005980 0
0.004495 -0.006793 0
0.005016 -0.007689 0
0.005582 -0.008676 0
0.006197 -0.009762 0
0.006864 -0.010953 0
0.007585 -0.012257 0
0.008364 -0.013680 0
0.009201 -0.015229 0
0.010099 -0.016906 0
0.011057 -0.018713 0
0.012071 -0.020647 0
0.013138 -0.022697 0
0.014247 -0.024846 0
0.015384 -0.027064 0
0.016529 -0.029307 0
0.017649 -0.031515 0
0.018706 -0.033601 0
0.019647 -0.035457 0
0.020405 -0.036946 0
0.020902 -0.037909 0
0.021052 -0.038168 0
0.020764 -0.037542 0
0.019956 -0.035871 0
0.018569 -0.033043 0
0.016581 -0.029025 0
0.014016 -0.023881 0
0.010950 -0.017777 0
0.007502 -0.010956 0
0.003807 -0.003701 0
0.000000 0.000000 0
0.000000 0.000000 0
0.000082 -0.000064 0
0.000166 -0.000133 0
0.000255 -0.000210 0
0.000351 -0.000301 0
0.000456 -0.000409 0
0.000573 -0.000538 0
0.000703 -0.000693 0
0.000849 -0.000876 0
0.001013 -0.001092 0
0.001197 -0.001344 0
0.001403 -0.001635 0
0.001633 -0.001969 0
0.001888 -0.002350 0
0.002171 -0.002781 0
0.002485 -0.003265 0
0.002830 -0.003809 0
0.003210 -0.004415 0
0.003627 -0.005089 0
0.004083 -0.005837 0
0.004581 -0.006665 0
0.005124 -0.007580 0
0.005715 -0.008588 0
0.006357 -0.009698 0
0.007054 -0.010918 0
0.007808 -0.012256 0
0.008623 -0.013721 0
0.009503 -0.015321 0
0.010448 -0.017063 0
0.011461 -0.018953 0
0.012543 -0.020992 0
0.013691 -0.023181 0
0.014900 -0.025509 0
0.016162 -0.027962 0
0.017463 -0.030510 0
0.018781 -0.033108 0
0.020084 -0.035694 0
0.021330 -0.038174 0
0.022461 -0.040430 0
0.023403 -0.042308 0
0.024066 -0.043618 0
0.024345 -0.044147 0
0.024129 -0.043667 0
0.023309 -0.041965 0
0.021801 -0.038877 0
0.019562 -0.034331 0
0.016608 -0.028378 0
0.013022 -0.021203 0
0.008944 -0.013102 0
0.004546 -0.004432 0
0.000000 0.000000 0
0.000000 0.000000 0
0.000089 -0.000057 0
0.000180 -0.000119 0
0.000277 -0.000192 0
0.000382 -0.000280 0
0.000498 -0.000388 0
0.000627 -0.000521 0
0.000771 -0.000682 0
0.000934 -0.000877 0
0.001117 -0.001109 0
0.001323 -0.001382 0
0.001553 -0.001699 0
0.001810 -0.002064 0
0.002096 -0.002482 0
0.002414 -0.002955 0
0.002765 -0.003488 0
0.003151 -0.004086 0
0.003576 -0.004754 0
0.004042 -0.005496 0
0.004551 -0.006319 0
0.005106 -0.007229 0
0.005710 -0.008235 0
0.006366 -0.009342 0
0.007079 -0.010561 0
0.007850 -0.011901 0
0.008685 -0.013370 0
0.009586 -0.014979 0
0.010557 -0.016737 0
0.011601 -0.018653 0
0.012720 -0.020734 0
0.013915 -0.022986 0
0.015186 -0.025409 0
0.016528 -0.027999 0
0.017934 -0.030740 0
0.019390 -0.033608 0
0.020876 -0.036559 0
0.022360 -0.039527 0
0.023798 -0.042420 0
0.025129 -0.045108 0
0.026273 -0.047421 0
0.027127 -0.049145 0
0.027571 -0.050027 0
0.027468 -0.049786 0
0.026682 -0.048147 0
0.025096 -0.044882 0
0.022639 -0.039866 0
0.019313 -0.033122 0
0.015202 -0.024850 0
0.010471 -0.015401 0
0.005331 -0.005217 0
0.000000 0.000000 0
0.000000 0.000000 0
0.000094 -0.000044 0
0.000191 -0.000093 0
0.000294 -0.000155 0
0.000406 -0.000234 0
0.000531 -0.000336 0
0.000670 -0.000466 0
0.000827 -0.000630 0
0.001005 -0.000831 0
0.001205 -0.001073 0
0.001431 -0.001362 0
0.001684 -0.001700 0
0.001967 -0.002091 0
0.002283 -0.002540 0
0.002633 -0.003050 0
0.003019 -0.003626 0
0.003445 -0.004272 0
0.003913 -0.004993 0
0.004424 -0.005795 0
0.004983 -0.006684 0
0.005591 -0.007667 0
0.006252 -0.008752 0
0.006970 -0.009948 0
0.007747 -0.011263 0
0.008588 -0.012707 0
0.009496 -0.014292 0
0.010476 -0.016028 0
0.011531 -0.017927 0
0.012665 -0.019999 0
0.013881 -0.022254 0
0.015181 -0.024700 0
0.016564 -0.027341 0
0.018030 -0.030175 0
0.019570 -0.033193 0
0.021175 -0.036372 0
0.022824 -0.039673 0
0.024487 -0.043032 0
0.026120 -0.046355 0
0.027660 -0.049508 0
0.029021 -0.052305 0
0.030092 -0.054510 0
0.030735 -0.055829 0
0.030788 -0.055925 0
0.030082 -0.054452 0
0.028463 -0.051103 0
0.025825 -0.045679 0
0.022144 -0.038164 0
0.017505 -0.028761 0
0.012095 -0.017882 0
0.006170 -0.006068 0
0.000000 0.000000 0
0.000000 0.000000 0
0.000097 -0.000023 0
0.000197 -0.000052 0
0.000304 -0.000095 0
0.000421 -0.000159 0
0.000552 -0.000248 0
0.000700 -0.000370 0
0.000868 -0.000529 0
0.001059 -0.000731 0
0.001275 -0.000979 0
0.001520 -0.001278 0
0.001795 -0.001632 0
0.002103 -0.002044 0
0.002446 -0.002519 0
0.002827 -0.003061 0
0.003248 -0.003673 0
0.003711 -0.004360 0
0.004219 -0.005129 0
0.004774 -0.005983 0
0.005380 -0.006930 0
0.006038 -0.007976 0
0.006753 -0.009131 0
0.007527 -0.010403 0
0.008365 -0.011802 0
0.009270 -0.013338 0
0.010247 -0.015024 0
0.011299 -0.016873 0
0.012431 -0.018896 0
0.013648 -0.021108 0
0.014952 -0.023521 0
0.016348 -0.026145 0
0.017837 -0.028988 0
0.019417 -0.032054 0
0.021086 -0.035337 0
0.022832 -0.038821 0
0.024639 -0.042472 0
0.026480 -0.046229 0
0.028310 -0.050002 0
0.030066 -0.053652 0
0.031660 -0.056984 0
0.032970 -0.059739 0
0.033844 -0.061583 0
0.034094 -0.062119 0
0.033516 -0.060921 0
0.031912 -0.057585 0
0.029132 -0.051825 0
0.025119 -0.043560 0
0.019947 -0.032988 0
0.013828 -0.020581 0
0.007068 -0.006997 0
0.000000 0.000000 0
0.000000 0.000000 0
0.000097 0.000007 0
0.000197 0.000006 0
0.000306 -0.000011 0
0.000426 -0.000051 0
0.000562 -0.000121 0
0.000717 -0.000228 0
0.000893 -0.000377 0
0.001096 -0.000573 0
0.001326 -0.000821 0
0.001588 -0.001125 0
0.001883 -0.001490 0
0.002214 -0.001918 0
0.002584 -0.002414 0
0.002995 -0.002982 0
0.003448 -0.003625 0
0.003947 -0.004348 0
0.004494 -0.005157 0
0.005092 -0.006057 0
0.005742 -0.007054 0
0.006449 -0.008156 0
0.007214 -0.009371 0
0.008042 -0.010709 0
0.008937 -0.012181 0
0.009902 -0.013797 0
0.010942 -0.015573 0
0.012061 -0.017520 0
0.013265 -0.019654 0
0.014558 -0.021992 0
0.015945 -0.024547 0
0.017430 -0.027335 0
0.019016 -0.030368 0
0.020705 -0.033654 0
0.022494 -0.037194 0
0.024376 -0.040978 0
0.026337 -0.044979 0
0.028352 -0.049144 0
0.030380 -0.053386 0
0.032359 -0.057566 0
0.034198 -0.061485 0
0.035769 -0.064859 0
0.036905 -0.067318 0
0.037393 -0.068402 0
0.036992 -0.067595 0
0.035453 -0.064382 0
0.032572 -0.058363 0
0.028251 -0.049372 0
0.022544 -0.037585 0
0.015684 -0.023536 0
0.008034 -0.008017 0
0.000000 0.000000 0
0.000000 0.000000 0
0.000094 0.000046 0
0.000192 0.000083 0
0.000299 0.000101 0
0.000420 0.000093 0
0.000557 0.000051 0
0.000716 -0.000033 0
0.000900 -0.000165 0
0.001112 -0.000350 0
0.001355 -0.000593 0
0.001633 -0.000897 0
0.001947 -0.001268 0
0.002301 -0.001708 0
0.002696 -0.002221 0
0.003135 -0.002810 0
0.003621 -0.003479 0
0.004155 -0.004233 0
0.004740 -0.005076 0
0.005378 -0.006015 0
0.006072 -0.007056 0
0.006824 -0.008205 0
0.007638 -0.009473 0
0.008518 -0.010868 0
0.009467 -0.012403 0
0.010488 -0.014090 0
0.011588 -0.015943 0
0.012770 -0.017978 0
0.014041 -0.020211 0
0.015405 -0.022661 0
0.016869 -0.025347 0
0.018438 -0.028286 0
0.020116 -0.031497 0
0.021906 -0.034994 0
0.023810 -0.038784 0
0.025823 -0.042865 0
0.027934 -0.047219 0
0.030121 -0.051802 0
0.032348 -0.056532 0
0.034554 -0.061277 0
0.036648 -0.065831 0
0.038499 -0.069896 0
0.039925 -0.073064 0
0.040690 -0.074810 0
0.040513 -0.074518 0
0.039090 -0.071547 0
0.036156 -0.065357 0
0.031553 -0.055668 0
0.025310 -0.042616 0
0.017676 -0.026793 0
0.009074 -0.009146 0
0.000000 0.000000 0
0.000000 0.000000 0
0.000087 0.000096 0
0.000180 0.000181 0
0.000283 0.000245 0
0.000400 0.000279 0
0.000537 0.000272 0
0.000698 0.000219 0
0.000886 0.000111 0
0.001106 -0.000057 0
0.001360 -0.000288 0
0.001652 -0.000589 0
0.001985 -0.000961 0
0.002360 -0.001408 0
0.002780 -0.001933 0
0.003248 -0.002540 0
0.003765 -0.003231 0
0.004333 -0.004012 0
0.004955 -0.004885 0
0.005633 -0.005858 0
0.006370 -0.006936 0
0.007168 -0.008127 0
0.008030 -0.009440 0
0.008959 -0.010885 0
0.009960 -0.012475 0
0.011036 -0.014223 0
0.012193 -0.016144 0
0.013436 -0.018256 0
0.014770 -0.020577 0
0.016202 -0.023130 0
0.017738 -0.025935 0
0.019385 -0.029016 0
0.021150 -0.032395 0
0.023038 -0.036094 0
0.025051 -0.040128 0
0.027189 -0.044504 0
0.029445 -0.049214 0
0.031802 -0.054224 0
0.034226 -0.059464 0
0.036662 -0.064807 0
0.039020 -0.070048 0
0.041166 -0.074876 0
0.042908 -0.078847 0
0.043987 -0.081373 0
0.044080 -0.081731 0
0.042827 -0.079133 0
0.039887 -0.072871 0
0.035035 -0.062520 0
0.028257 -0.048146 0
0.019813 -0.030398 0
0.010196 -0.010400 0
0.000000 0.000000 0
0.000000 0.000000 0
0.000077 0.000159 0
0.000160 0.000305 0
0.000254 0.000426 0
0.000365 0.000511 0
0.000498 0.000550 0
0.000658 0.000535 0
0.000849 0.000459 0
0.001074 0.000315 0
0.001339 0.000099 0
0.001644 -0.000192 0
0.001994 -0.000562 0
0.002390 -0.001013 0
0.002835 -0.001548 0
0.003330 -0.002169 0
0.003879 -0.002879 0
0.004482 -0.003682 0
0.005142 -0.004582 0
0.005860 -0.005585 0
0.006639 -0.006696 0
0.007482 -0.007923 0
0.008391 -0.009276 0
0.009370 -0.010764 0
0.010422 -0.012402 0
0.011552 -0.014203 0
0.012764 -0.016184 0
0.014065 -0.018364 0
0.015460 -0.020765 0
0.016957 -0.023410 0
0.018563 -0.026325 0
0.020286 -0.029539 0
0.022133 -0.033078 0
0.024114 -0.036972 0
0.026232 -0.041245 0
0.028491 -0.045915 0
0.030888 -0.050983 0
0.033411 -0.056431 0
0.036031 -0.062200 0
0.038698 -0.068174 0
0.041325 -0.074153 0
0.043778 -0.079817 0
0.045857 -0.084692 0
0.047283 -0.088122 0
0.047692 -0.089271 0
0.046661 -0.087190 0
0.043767 -0.080969 0
0.038701 -0.069999 0
0.031393 -0.054245 0
0.022106 -0.034404 0
0.011405 -0.011798 0
0.000000 0.000000 0
0.000000 0.000000 0
0.000062 0.000236 0
0.000130 0.000457 0
0.000212 0.000648 0
0.000313 0.000797 0
0.000438 0.000892 0
0.000594 0.000925 0
0.000785 0.000887 0
0.001014 0.000773 0
0.001286 0.000578 0
0.001604 0.000300 0
0.001971 -0.000064 0
0.002388 -0.000517 0
0.002857 -0.001059 0
0.003382 -0.001692 0
0.003962 -0.002419 0
0.004601 -0.003243 0
0.005299 -0.004167 0
0.006059 -0.005196 0
0.006881 -0.006337 0
0.007770 -0.007596 0
0.008727 -0.008983 0
0.009756 -0.010510 0
0.010859 -0.012190 0
0.012043 -0.014037 0
0.013310 -0.016071 0
0.014669 -0.018312 0
0.016124 -0.020784 0
0.017684 -0.023514 0
0.019357 -0.026531 0
0.021153 -0.029869 0
0.023080 -0.033561 0
0.025150 -0.037644 0
0.027369 -0.042152 0
0.029745 -0.047113 0
0.032278 -0.052543 0
0.034963 -0.058438 0
0.037776 -0.064756 0
0.040672 -0.071394 0
0.043571 -0.078161 0
0.046341 -0.084734 0
0.048774 -0.090613 0
0.050575 -0.095077 0
0.051341 -0.097171 0
0.050584 -0.095763 0
0.047790 -0.089713 0
0.042549 -0.078178 0
0.034720 -0.060984 0
0.024558 -0.038862 0
0.012704 -0.013361 0
0.000000 0.000000 0
0.000000 0.000000 0
0.000041 0.000330 0
0.000090 0.000642 0
0.000154 0.000918 0
0.000240 0.001144 0
0.000354 0.001307 0
0.000502 0.001397 0
0.000690 0.001405 0
0.000921 0.001327 0
0.001200 0.001158 0
0.001530 0.000896 0
0.001913 0.000539 0
0.002351 0.000087 0
0.002846 -0.000461 0
0.003400 -0.001106 0
0.004014 -0.001849 0
0.004690 -0.002692 0
0.005428 -0.003638 0
0.006231 -0.004692 0
0.007099 -0.005860 0
0.008035 -0.007148 0
0.009042 -0.008567 0
0.010122 -0.010128 0
0.011278 -0.011844 0
0.012516 -0.013733 0
0.013840 -0.015814 0
0.015256 -0.018109 0
0.016771 -0.020646 0
0.018394 -0.023453 0
0.020134 -0.026564 0
0.022000 -0.030019 0
0.024005 -0.033857 0
0.026161 -0.038123 0
0.028478 -0.042861 0
0.030966 -0.048111 0
0.033632 -0.053906 0
0.036473 -0.060258 0
0.039474 -0.067142 0
0.042597 -0.074475 0
0.045768 -0.082080 0
0.048858 -0.089636 0
0.051659 -0.096622 0
0.053858 -0.102255 0
0.055018 -0.105457 0
0.054583 -0.104895 0
0.051943 -0.099160 0
0.046572 -0.087129 0
0.038235 -0.068436 0
0.027170 -0.043829 0
0.014094 -0.015108 0
0.000000 0.000000 0
0.000000 0.000000 0
0.000014 0.000444 0
0.000037 0.000866 0
0.000077 0.001245 0
0.000142 0.001563 0
0.000241 0.001807 0
0.000378 0.001964 0
0.000560 0.002026 0
0.000791 0.001989 0
0.001075 0.001849 0
0.001416 0.001606 0
0.001815 0.001258 0
0.002275 0.000807 0
0.002797 0.000253 0
0.003383 -0.000404 0
0.004033 -0.001163 0
0.004748 -0.002026 0
0.005529 -0.002994 0
0.006378 -0.004073 0
0.007294 -0.005266 0
0.008281 -0.006582 0
0.009340 -0.008030 0
0.010473 -0.009621 0
0.011685 -0.011371 0
0.012979 -0.013297 0
0.014361 -0.015420 0
0.015836 -0.017764 0
0.017412 -0.020358 0
0.019099 -0.023236 0
0.020904 -0.026435 0
0.022842 -0.029999 0
0.024923 -0.033977 0
0.027162 -0.038419 0
0.029574 -0.043382 0
0.032171 -0.048920 0
0.034964 -0.055081 0
0.037956 -0.061896 0
0.041140 -0.069363 0
0.044485 -0.077422 0
0.047924 -0.085913 0
0.051334 -0.094526 0
0.054509 -0.102723 0
0.057124 -0.109665 0
0.058707 -0.114147 0
0.058639 -0.114616 0
0.056204 -0.109360 0
0.050749 -0.096916 0
0.041925 -0.076670 0
0.029934 -0.049358 0
0.015574 -0.017061 0
0.000000 0.000000 0
0.000000 0.000000 0
-0.000021 0.000583 0
-0.000032 0.001137 0
-0.000022 0.001639 0
0.000017 0.002067 0
0.000094 0.002405 0
0.000215 0.002640 0
0.000388 0.002765 0
0.000616 0.002774 0
0.000905 0.002667 0
0.001256 0.002442 0
0.001673 0.002104 0
0.002156 0.001652 0
0.002708 0.001090 0
0.003328 0.000420 0
0.004016 -0.000358 0
0.004775 -0.001242 0
0.005602 -0.002234 0
0.006500 -0.003337 0
0.007469 -0.004557 0
0.008510 -0.005900 0
0.009625 -0.007375 0
0.010817 -0.008996 0
0.012087 -0.010776 0
0.013441 -0.012736 0
0.014883 -0.014896 0
0.016420 -0.017284 0
0.018060 -0.019930 0
0.019810 -0.022873 0
0.021684 -0.026153 0
0.023691 -0.029820 0
0.025848 -0.033929 0
0.028170 -0.038541 0
0.030673 -0.043724 0
0.033375 -0.049547 0
0.036291 -0.056073 0
0.039429 -0.063358 0
0.042789 -0.071423 0
0.046347 -0.080235 0