# vtk DataFile Version 2.0
generated by CFD-lab course output (written by Tobias Neckel) 
ASCII

DATASET STRUCTURED_GRID
DIMENSIONS  51 51 1 
POINTS 2601 float

0.000000 0.000000 0
0.020000 0.000000 0
0.040000 0.000000 0
0.060000 0.000000 0
0.080000 0.000000 0
0.100000 0.000000 0
0.120000 0.000000 0
0.140000 0.000000 0
0.160000 0.000000 0
0.180000 0.000000 0
0.200000 0.000000 0
0.220000 0.000000 0
0.240000 0.000000 0
0.260000 0.000000 0
0.280000 0.000000 0
0.300000 0.000000 0
0.320000 0.000000 0
0.340000 0.000000 0
0.360000 0.000000 0
0.380000 0.000000 0
0.400000 0.000000 0
0.420000 0.000000 0
0.440000 0.000000 0
0.460000 0.000000 0
0.480000 0.000000 0
0.500000 0.000000 0
0.520000 0.000000 0
0.540000 0.000000 0
0.560000 0.000000 0
0.580000 0.000000 0
0.600000 0.000000 0
0.620000 0.000000 0
0.640000 0.000000 0
0.660000 0.000000 0
0.680000 0.000000 0
0.700000 0.000000 0
0.720000 0.000000 0
0.740000 0.000000 0
0.760000 0.000000 0
0.780000 0.000000 0
0.800000 0.000000 0
0.820000 0.000000 0
0.840000 0.000000 0
0.860000 0.000000 0
0.880000 0.000000 0
0.900000 0.000000 0
0.920000 0.000000 0
0.940000 0.000000 0
0.960000 0.000000 0
0.980000 0.000000 0
1.000000 0.000000 0
0.000000 0.020000 0
0.020000 0.020000 0
0.040000 0.020000 0
0.060000 0.020000 0
0.080000 0.020000 0
0.100000 0.020000 0
0.120000 0.020000 0
0.140000 0.020000 0
0.160000 0.020000 0
0.180000 0.020000 0
0.200000 0.020000 0
0.220000 0.020000 0
0.240000 0.020000 0
0.260000 0.020000 0
0.280000 0.020000 0
0.300000 0.020000 0
0.320000 0.020000 0
0.340000 0.020000 0
0.360000 0.020000 0
0.380000 0.020000 0
0.400000 0.020000 0
0.420000 0.020000 0
0.440000 0.020000 0
0.460000 0.020000 0
0.480000 0.020000 0
0.500000 0.020000 0
0.520000 0.020000 0
0.540000 0.020000 0
0.560000 0.020000 0
0.580000 0.020000 0
0.600000 0.020000 0
0.620000 0.020000 0
0.640000 0.020000 0
0.660000 0.020000 0
0.680000 0.020000 0
0.700000 0.020000 0
0.720000 0.020000 0
0.740000 0.020000 0
0.760000 0.020000 0
0.780000 0.020000 0
0.800000 0.020000 0
0.820000 0.020000 0
0.840000 0.020000 0
0.860000 0.020000 0
0.880000 0.020000 0
0.900000 0.020000 0
0.920000 0.020000 0
0.940000 0.020000 0
0.960000 0.020000 0
0.980000 0.020000 0
1.000000 0.020000 0
0.000000 0.040000 0
0.020000 0.040000 0
0.040000 0.040000 0
0.060000 0.040000 0
0.080000 0.040000 0
0.100000 0.040000 0
0.120000 0.040000 0
0.140000 0.040000 0
0.160000 0.040000 0
0.180000 0.040000 0
0.200000 0.040000 0
0.220000 0.040000 0
0.240000 0.040000 0
0.260000 0.040000 0
0.280000 0.040000 0
0.300000 0.040000 0
0.320000 0.040000 0
0.340000 0.040000 0
0.360000 0.040000 0
0.380000 0.040000 0
0.400000 0.040000 0
0.420000 0.040000 0
0.440000 0.040000 0
0.460000 0.040000 0
0.480000 0.040000 0
0.500000 0.040000 0
0.520000 0.040000 0
0.540000 0.040000 0
0.560000 0.040000 0
0.580000 0.040000 0
0.600000 0.040000 0
0.620000 0.040000 0
0.640000 0.040000 0
0.660000 0.040000 0
0.680000 0.040000 0
0.700000 0.040000 0
0.720000 0.040000 0
0.740000 0.040000 0
0.760000 0.040000 0
0.780000 0.040000 0
0.800000 0.040000 0
0.820000 0.040000 0
0.840000 0.040000 0
0.860000 0.040000 0
0.880000 0.040000 0
0.900000 0.040000 0
0.920000 0.040000 0
0.940000 0.040000 0
0.960000 0.040000 0
0.980000 0.040000 0
1.000000 0.040000 0
0.000000 0.060000 0
0.020000 0.060000 0
0.040000 0.060000 0
0.060000 0.060000 0
0.080000 0.060000 0
0.100000 0.060000 0
0.120000 0.060000 0
0.140000 0.060000 0
0.160000 0.060000 0
0.180000 0.060000 0
0.200000 0.060000 0
0.220000 0.060000 0
0.240000 0.060000 0
0.260000 0.060000 0
0.280000 0.060000 0
0.300000 0.060000 0
0.320000 0.060000 0
0.340000 0.060000 0
0.360000 0.060000 0
0.380000 0.060000 0
0.400000 0.060000 0
0.420000 0.060000 0
0.440000 0.060000 0
0.460000 0.060000 0
0.480000 0.060000 0
0.500000 0.060000 0
0.520000 0.060000 0
0.540000 0.060000 0
0.560000 0.060000 0
0.580000 0.060000 0
0.600000 0.060000 0
0.620000 0.060000 0
0.640000 0.060000 0
0.660000 0.060000 0
0.680000 0.060000 0
0.700000 0.060000 0
0.720000 0.060000 0
0.740000 0.060000 0
0.760000 0.060000 0
0.780000 0.060000 0
0.800000 0.060000 0
0.820000 0.060000 0
0.840000 0.060000 0
0.860000 0.060000 0
0.880000 0.060000 0
0.900000 0.060000 0
0.920000 0.060000 0
0.940000 0.060000 0
0.960000 0.060000 0
0.980000 0.060000 0
1.000000 0.060000 0
0.000000 0.080000 0
0.020000 0.080000 0
0.040000 0.080000 0
0.060000 0.080000 0
0.080000 0.080000 0
0.100000 0.080000 0
0.120000 0.080000 0
0.140000 0.080000 0
0.160000 0.080000 0
0.180000 0.080000 0
0.200000 0.080000 0
0.220000 0.080000 0
0.240000 0.080000 0
0.260000 0.080000 0
0.280000 0.080000 0
0.300000 0.080000 0
0.320000 0.080000 0
0.340000 0.080000 0
0.360000 0.080000 0
0.380000 0.080000 0
0.400000 0.080000 0
0.420000 0.080000 0
0.440000 0.080000 0
0.460000 0.080000 0
0.480000 0.080000 0
0.500000 0.080000 0
0.520000 0.080000 0
0.540000 0.080000 0
0.560000 0.080000 0
0.580000 0.080000 0
0.600000 0.080000 0
0.620000 0.080000 0
0.640000 0.080000 0
0.660000 0.080000 0
0.680000 0.080000 0
0.700000 0.080000 0
0.720000 0.080000 0
0.740000 0.080000 0
0.760000 0.080000 0
0.780000 0.080000 0
0.800000 0.080000 0
0.820000 0.080000 0
0.840000 0.080000 0
0.860000 0.080000 0
0.880000 0.080000 0
0.900000 0.080000 0
0.920000 0.080000 0
0.940000 0.080000 0
0.960000 0.080000 0
0.980000 0.080000 0
1.000000 0.080000 0
0.000000 0.100000 0
0.020000 0.100000 0
0.040000 0.100000 0
0.060000 0.100000 0
0.080000 0.100000 0
0.100000 0.100000 0
0.120000 0.100000 0
0.140000 0.100000 0
0.160000 0.100000 0
0.180000 0.100000 0
0.200000 0.100000 0
0.220000 0.100000 0
0.240000 0.100000 0
0.260000 0.100000 0
0.280000 0.100000 0
0.300000 0.100000 0
0.320000 0.100000 0
0.340000 0.100000 0
0.360000 0.100000 0
0.380000 0.100000 0
0.400000 0.100000 0
0.420000 0.100000 0
0.440000 0.100000 0
0.460000 0.100000 0
0.480000 0.100000 0
0.500000 0.100000 0
0.520000 0.100000 0
0.540000 0.100000 0
0.560000 0.100000 0
0.580000 0.100000 0
0.600000 0.100000 0
0.620000 0.100000 0
0.640000 0.100000 0
0.660000 0.100000 0
0.680000 0.100000 0
0.700000 0.100000 0
0.720000 0.100000 0
0.740000 0.100000 0
0.760000 0.100000 0
0.780000 0.100000 0
0.800000 0.100000 0
0.820000 0.100000 0
0.840000 0.100000 0
0.860000 0.100000 0
0.880000 0.100000 0
0.900000 0.100000 0
0.920000 0.100000 0
0.940000 0.100000 0
0.960000 0.100000 0
0.980000 0.100000 0
1.000000 0.100000 0
0.000000 0.120000 0
0.020000 0.120000 0
0.040000 0.120000 0
0.060000 0.120000 0
0.080000 0.120000 0
0.100000 0.120000 0
0.120000 0.120000 0
0.140000 0.120000 0
0.160000 0.120000 0
0.180000 0.120000 0
0.200000 0.120000 0
0.220000 0.120000 0
0.240000 0.120000 0
0.260000 0.120000 0
0.280000 0.120000 0
0.300000 0.120000 0
0.320000 0.120000 0
0.340000 0.120000 0
0.360000 0.120000 0
0.380000 0.120000 0
0.400000 0.120000 0
0.420000 0.120000 0
0.440000 0.120000 0
0.460000 0.120000 0
0.480000 0.120000 0
0.500000 0.120000 0
0.520000 0.120000 0
0.540000 0.120000 0
0.560000 0.120000 0
0.580000 0.120000 0
0.600000 0.120000 0
0.620000 0.120000 0
0.640000 0.120000 0
0.660000 0.120000 0
0.680000 0.120000 0
0.700000 0.120000 0
0.720000 0.120000 0
0.740000 0.120000 0
0.760000 0.120000 0
0.780000 0.120000 0
0.800000 0.120000 0
0.820000 0.120000 0
0.840000 0.120000 0
0.860000 0.120000 0
0.880000 0.120000 0
0.900000 0.120000 0
0.920000 0.120000 0
0.940000 0.120000 0
0.960000 0.120000 0
0.980000 0.120000 0
1.000000 0.120000 0
0.000000 0.140000 0
0.020000 0.140000 0
0.040000 0.140000 0
0.060000 0.140000 0
0.080000 0.140000 0
0.100000 0.140000 0
0.120000 0.140000 0
0.140000 0.140000 0
0.160000 0.140000 0
0.180000 0.140000 0
0.200000 0.140000 0
0.220000 0.140000 0
0.240000 0.140000 0
0.260000 0.140000 0
0.280000 0.140000 0
0.300000 0.140000 0
0.320000 0.140000 0
0.340000 0.140000 0
0.360000 0.140000 0
0.380000 0.140000 0
0.400000 0.140000 0
0.420000 0.140000 0
0.440000 0.140000 0
0.460000 0.140000 0
0.480000 0.140000 0
0.500000 0.140000 0
0.520000 0.140000 0
0.540000 0.140000 0
0.560000 0.140000 0
0.580000 0.140000 0
0.600000 0.140000 0
0.620000 0.140000 0
0.640000 0.140000 0
0.660000 0.140000 0
0.680000 0.140000 0
0.700000 0.140000 0
0.720000 0.140000 0
0.740000 0.140000 0
0.760000 0.140000 0
0.780000 0.140000 0
0.800000 0.140000 0
0.820000 0.140000 0
0.840000 0.140000 0
0.860000 0.140000 0
0.880000 0.140000 0
0.900000 0.140000 0
0.920000 0.140000 0
0.940000 0.140000 0
0.960000 0.140000 0
0.980000 0.140000 0
1.000000 0.140000 0
0.000000 0.160000 0
0.020000 0.160000 0
0.040000 0.160000 0
0.060000 0.160000 0
0.080000 0.160000 0
0.100000 0.160000 0
0.120000 0.160000 0
0.140000 0.160000 0
0.160000 0.160000 0
0.180000 0.160000 0
0.200000 0.160000 0
0.220000 0.160000 0
0.240000 0.160000 0
0.260000 0.160000 0
0.280000 0.160000 0
0.300000 0.160000 0
0.320000 0.160000 0
0.340000 0.160000 0
0.360000 0.160000 0
0.380000 0.160000 0
0.400000 0.160000 0
0.420000 0.160000 0
0.440000 0.160000 0
0.460000 0.160000 0
0.480000 0.160000 0
0.500000 0.160000 0
0.520000 0.160000 0
0.540000 0.160000 0
0.560000 0.160000 0
0.580000 0.160000 0
0.600000 0.160000 0
0.620000 0.160000 0
0.640000 0.160000 0
0.660000 0.160000 0
0.680000 0.160000 0
0.700000 0.160000 0
0.720000 0.160000 0
0.740000 0.160000 0
0.760000 0.160000 0
0.780000 0.160000 0
0.800000 0.160000 0
0.820000 0.160000 0
0.840000 0.160000 0
0.860000 0.160000 0
0.880000 0.160000 0
0.900000 0.160000 0
0.920000 0.160000 0
0.940000 0.160000 0
0.960000 0.160000 0
0.980000 0.160000 0
1.000000 0.160000 0
0.000000 0.180000 0
0.020000 0.180000 0
0.040000 0.180000 0
0.060000 0.180000 0
0.080000 0.180000 0
0.100000 0.180000 0
0.120000 0.180000 0
0.140000 0.180000 0
0.160000 0.180000 0
0.180000 0.180000 0
0.200000 0.180000 0
0.220000 0.180000 0
0.240000 0.180000 0
0.260000 0.180000 0
0.280000 0.180000 0
0.300000 0.180000 0
0.320000 0.180000 0
0.340000 0.180000 0
0.360000 0.180000 0
0.380000 0.180000 0
0.400000 0.180000 0
0.420000 0.180000 0
0.440000 0.180000 0
0.460000 0.180000 0
0.480000 0.180000 0
0.500000 0.180000 0
0.520000 0.180000 0
0.540000 0.180000 0
0.560000 0.180000 0
0.580000 0.180000 0
0.600000 0.180000 0
0.620000 0.180000 0
[...]
POINT_DATA 2601 

VECTORS velocity float
0.000000 0.000000 0
0.000000 0.000000 0
0.000000 0.000000 0
0.000000 0.000000 0
0.000000 0.000000 0
0.000000 0.000000 0
0.000000 0.000000 0
0.000000 0.000000 0
0.000000 0.000000 0
0.000000 0.000000 0
0.000000 0.000000 0
0.000000 0.000000 0
0.000000 0.000000 0
0.000000 0.000000 0
0.000000 0.000000 0
0.000000 0.000000 0
0.000000 0.000000 0
0.000000 0.000000 0
0.000000 0.000000 0
0.000000 0.000000 0
0.000000 0.000000 0
0.000000 0.000000 0
0.000000 0.000000 0
0.000000 0.000000 0
0.000000 0.000000 0
0.000000 0.000000 0
0.000000 0.000000 0
0.000000 0.000000 0
0.000000 0.000000 0
0.000000 0.000000 0
0.000000 0.000000 0
0.000000 0.000000 0
0.000000 0.000000 0
0.000000 0.000000 0
0.000000 0.000000 0
0.000000 0.000000 0
0.000000 0.000000 0
0.000000 0.000000 0
-0.000000 0.000000 0
-0.000000 0.000000 0
-0.000000 0.000000 0
-0.000000 0.000000 0
-0.000000 0.000000 0
-0.000000 0.000000 0
-0.000000 0.000000 0
-0.000000 0.000000 0
-0.000000 0.000000 0
-0.000000 0.000000 0
-0.000000 0.000000 0
-0.000000 0.000000 0
0.000000 0.000000 0
0.000000 -0.000000 0
-0.028506 -0.024872 0
-0.053886 -0.047641 0
-0.073725 -0.066711 0
-0.088002 -0.081972 0
-0.098220 -0.094485 0
-0.105994 -0.105501 0
-0.112451 -0.115933 0
-0.118218 -0.126297 0
-0.123588 -0.136813 0
-0.128663 -0.147530 0
-0.133455 -0.158402 0
-0.137931 -0.169333 0
-0.142037 -0.180198 0
-0.145714 -0.190855 0
-0.148899 -0.201150 0
-0.151529 -0.210917 0
-0.153542 -0.219985 0
-0.154881 -0.228175 0
-0.155491 -0.235311 0
-0.155325 -0.241215 0
-0.154344 -0.245719 0
-0.152517 -0.248665 0
-0.149826 -0.249913 0
-0.146266 -0.249350 0
-0.141846 -0.246890 0
-0.136595 -0.242487 0
-0.130558 -0.236140 0
-0.123801 -0.227899 0
-0.116409 -0.217868 0
-0.108489 -0.206211 0
-0.100165 -0.193149 0
-0.091574 -0.178955 0
-0.082868 -0.163942 0
-0.074198 -0.148455 0
-0.065715 -0.132843 0
-0.057559 -0.117448 0
-0.049849 -0.102579 0
-0.042682 -0.088495 0
-0.036126 -0.075398 0
-0.030217 -0.063421 0
-0.024965 -0.052631 0
-0.020355 -0.043037 0
-0.016348 -0.034597 0
-0.012895 -0.027229 0
-0.009933 -0.020822 0
-0.007394 -0.015247 0
-0.005208 -0.010358 0
-0.003302 -0.005992 0
-0.001595 -0.001961 0
0.000000 0.000000 0
0.000000 0.000000 0
-0.053389 -0.046050 0
-0.098225 -0.085833 0
-0.130653 -0.116654 0
-0.152251 -0.139597 0
-0.166713 -0.157477 0
-0.177163 -0.172764 0
-0.185506 -0.186980 0
-0.192717 -0.200873 0
-0.199226 -0.214731 0
-0.205191 -0.228599 0
-0.210645 -0.242414 0
-0.215565 -0.256059 0
-0.219910 -0.269402 0
-0.223630 -0.282296 0
-0.226676 -0.294594 0
-0.228997 -0.306142 0
-0.230545 -0.316786 0
-0.231274 -0.326368 0
-0.231144 -0.334732 0
-0.230115 -0.341719 0
-0.228154 -0.347175 0
-0.225235 -0.350948 0
-0.221336 -0.352896 0
-0.216447 -0.352885 0
-0.210567 -0.350799 0
-0.203706 -0.346542 0
-0.195890 -0.340046 0
-0.187163 -0.331281 0
-0.177586 -0.320261 0
-0.167243 -0.307052 0
-0.156242 -0.291784 0
-0.144712 -0.274655 0
-0.132806 -0.255930 0
-0.120697 -0.235941 0
-0.108570 -0.215074 0
-0.096616 -0.193754 0
-0.085018 -0.172416 0
-0.073947 -0.151486 0
-0.063547 -0.131347 0
-0.053929 -0.112320 0
-0.045163 -0.094645 0
-0.037282 -0.078474 0
-0.030281 -0.063869 0
-0.024123 -0.050813 0
-0.018742 -0.039218 0
-0.014055 -0.028938 0
-0.009960 -0.019776 0
-0.006343 -0.011488 0
-0.003075 -0.003768 0
0.000000 0.000000 0
0.000000 0.000000 0
-0.071713 -0.060428 0
-0.128237 -0.109608 0
-0.165848 -0.144804 0
-0.188920 -0.169247 0
-0.203333 -0.187493 0
-0.213220 -0.202806 0
-0.220831 -0.216945 0
-0.227236 -0.230697 0
-0.232891 -0.244342 0
-0.237970 -0.257924 0
-0.242521 -0.271389 0
-0.246542 -0.284645 0
-0.250011 -0.297585 0
-0.252895 -0.310095 0
-0.255158 -0.322055 0
-0.256764 -0.333344 0
-0.257674 -0.343834 0
-0.257848 -0.353391 0
-0.257248 -0.361879 0
-0.255837 -0.369158 0
-0.253580 -0.375084 0
-0.250445 -0.379515 0
-0.246408 -0.382308 0
-0.241448 -0.383328 0
-0.235554 -0.382446 0
-0.228723 -0.379546 0
-0.220966 -0.374531 0
-0.212305 -0.367328 0
-0.202777 -0.357894 0
-0.192437 -0.346227 0
-0.181361 -0.332372 0
-0.169641 -0.316429 0
-0.157397 -0.298562 0
-0.144766 -0.279000 0
-0.131906 -0.258038 0
-0.118990 -0.236031 0
-0.106201 -0.213380 0
-0.093721 -0.190512 0
-0.081722 -0.167856 0
-0.070355 -0.145815 0
-0.059744 -0.124742 0
-0.049975 -0.104913 0
-0.041092 -0.086520 0
-0.033104 -0.069657 0
-0.025978 -0.054328 0
-0.019650 -0.040445 0
-0.014026 -0.027838 0
-0.008983 -0.016254 0
-0.004371 -0.005346 0
0.000000 0.000000 0
0.000000 0.000000 0
-0.083082 -0.067878 0
-0.145269 -0.120612 0
-0.184009 -0.156152 0
-0.206341 -0.179675 0
-0.219619 -0.196835 0
-0.228435 -0.211204 0
-0.235111 -0.224549 0
-0.240693 -0.237614 0
-0.245616 -0.250649 0
-0.250046 -0.263692 0
-0.254029 -0.276696 0
-0.257566 -0.289579 0
-0.260635 -0.302247 0
-0.263204 -0.314597 0
-0.265236 -0.326520 0
-0.266690 -0.337899 0
-0.267522 -0.348611 0
-0.267687 -0.358524 0
-0.267140 -0.367501 0
-0.265836 -0.375397 0
-0.263733 -0.382067 0
-0.260794 -0.387362 0
-0.256986 -0.391133 0
-0.252282 -0.393238 0
-0.246666 -0.393539 0
-0.240129 -0.391910 0
-0.232674 -0.388242 0
-0.224319 -0.382446 0
-0.215094 -0.374460 0
-0.205044 -0.364256 0
-0.194232 -0.351846 0
-0.182739 -0.337288 0
-0.170665 -0.320693 0
-0.158126 -0.302231 0
-0.145258 -0.282131 0
-0.132211 -0.260679 0
-0.119147 -0.238215 0
-0.106233 -0.215116 0
-0.093634 -0.191783 0
-0.081508 -0.168616 0
-0.069990 -0.145992 0
-0.059193 -0.124241 0
-0.049192 -0.103621 0
-0.040028 -0.084310 0
-0.031702 -0.066388 0
-0.024177 -0.049838 0
-0.017378 -0.034541 0
-0.011192 -0.020272 0
-0.005466 -0.006688 0
0.000000 0.000000 0
0.000000 0.000000 0
-0.089127 -0.070200 0
-0.153591 -0.123146 0
-0.192113 -0.157556 0
-0.213528 -0.179779 0
-0.225951 -0.195911 0
-0.234116 -0.209538 0
-0.240312 -0.222348 0
-0.245538 -0.235023 0
-0.250202 -0.247783 0
-0.254453 -0.260653 0
-0.258330 -0.273586 0
-0.261828 -0.286500 0
-0.264920 -0.299304 0
-0.267569 -0.311896 0
-0.269733 -0.324165 0
-0.271365 -0.335994 0
-0.272415 -0.347256 0
-0.272832 -0.357815 0
-0.272565 -0.367529 0
-0.271564 -0.376249 0
-0.269779 -0.383821 0
-0.267169 -0.390089 0
-0.263693 -0.394898 0
-0.259321 -0.398094 0
-0.254030 -0.399530 0
-0.247806 -0.399070 0
-0.240648 -0.396594 0
-0.232569 -0.391998 0
-0.223596 -0.385207 0
-0.213769 -0.376176 0
-0.203149 -0.364898 0
-0.191811 -0.351410 0
-0.179850 -0.335799 0
-0.167376 -0.318205 0
-0.154516 -0.298824 0
-0.141409 -0.277906 0
-0.128208 -0.255754 0
-0.115067 -0.232708 0
-0.102144 -0.209139 0
-0.089588 -0.185427 0
-0.077535 -0.161943 0
-0.066102 -0.139024 0
-0.055376 -0.116957 0
-0.045413 -0.095956 0
-0.036235 -0.076149 0
-0.027821 -0.057567 0
-0.020115 -0.040135 0
-0.013016 -0.023663 0
-0.006379 -0.007829 0
0.000000 0.000000 0
0.000000 0.000000 0
-0.091847 -0.069351 0
-0.157019 -0.120849 0
-0.195134 -0.153747 0
-0.215987 -0.174849 0
-0.228005 -0.190271 0
-0.235934 -0.203477 0
-0.242014 -0.216054 0
-0.247211 -0.228624 0
-0.251908 -0.241382 0
-0.256244 -0.254343 0
-0.260251 -0.267454 0
-0.263919 -0.280632 0
-0.267217 -0.293786 0
-0.270106 -0.306813 0
-0.272539 -0.319601 0
-0.274467 -0.332031 0
-0.275835 -0.343973 0
-0.276590 -0.355289 0
-0.276676 -0.365833 0
-0.276039 -0.375452 0
-0.274626 -0.383985 0
-0.272388 -0.391271 0
-0.269281 -0.397145 0
-0.265268 -0.401446 0
-0.260321 -0.404016 0
-0.254419 -0.404708 0
-0.247558 -0.403385 0
-0.239743 -0.399932 0
-0.230996 -0.394256 0
-0.221354 -0.386294 0
-0.210873 -0.376019 0
-0.199625 -0.363450 0
-0.187702 -0.348652 0
-0.175213 -0.331744 0
-0.162282 -0.312902 0
-0.149048 -0.292357 0
-0.135660 -0.270389 0
-0.122272 -0.247326 0
-0.109038 -0.223521 0
-0.096106 -0.199345 0
-0.083612 -0.175164 0
-0.071672 -0.151318 0
-0.060378 -0.128105 0
-0.049793 -0.105756 0
-0.039945 -0.084426 0
-0.030826 -0.064174 0
-0.022388 -0.044955 0
-0.014540 -0.026606 0
-0.007144 -0.008825 0
0.000000 0.000000 0
0.000000 0.000000 0
-0.092742 -0.066710 0
-0.157970 -0.115951 0
-0.195793 -0.147274 0
-0.216408 -0.167456 0
-0.228327 -0.182402 0
-0.236265 -0.195396 0
-0.242427 -0.207921 0
-0.247752 -0.220547 0
-0.252614 -0.233445 0
-0.257142 -0.246622 0
-0.261368 -0.260021 0
-0.265279 -0.273560 0
-0.268842 -0.287145 0
-0.272018 -0.300675 0
-0.274759 -0.314039 0
-0.277013 -0.327116 0
-0.278726 -0.339777 0
-0.279842 -0.351881 0
-0.280303 -0.363282 0
-0.280051 -0.373821 0
-0.279029 -0.383336 0
-0.277183 -0.391658 0
-0.274464 -0.398617 0
-0.270830 -0.404041 0
-0.266246 -0.407763 0
-0.260685 -0.409623 0
-0.254135 -0.409472 0
-0.246595 -0.407176 0
-0.238081 -0.402625 0
-0.228623 -0.395736 0
-0.218272 -0.386461 0
-0.207097 -0.374795 0
-0.195184 -0.360780 0
-0.182641 -0.344514 0
-0.169593 -0.326151 0
-0.156178 -0.305904 0
-0.142547 -0.284044 0
-0.128859 -0.260885 0
-0.115270 -0.236780 0
-0.101934 -0.212099 0
-0.088990 -0.187213 0
-0.076558 -0.162473 0
-0.064735 -0.138187 0
-0.053588 -0.114605 0
-0.043149 -0.091898 0
-0.033415 -0.070146 0
-0.024346 -0.049323 0
-0.015853 -0.029283 0
-0.007803 -0.009736 0
0.000000 0.000000 0
0.000000 0.000000 0
-0.092714 -0.063073 0
-0.157744 -0.109633 0
-0.195405 -0.139364 0
-0.215985 -0.158743 0
-0.227972 -0.173342 0
-0.236041 -0.186234 0
-0.242371 -0.198795 0
-0.247888 -0.211551 0
-0.252961 -0.224650 0
-0.257717 -0.238093 0
-0.262185 -0.251821 0
-0.266354 -0.265751 0
-0.270194 -0.279791 0
-0.273663 -0.293840 0
-0.276715 -0.307790 0
-0.279299 -0.321521 0
-0.281361 -0.334904 0
-0.282842 -0.347800 0
-0.283683 -0.360059 0
-0.283823 -0.371523 0
-0.283202 -0.382026 0
-0.281762 -0.391393 0
-0.279448 -0.399448 0
-0.276211 -0.406013 0
-0.272009 -0.410910 0
-0.266809 -0.413967 0
-0.260592 -0.415020 0
-0.253349 -0.413921 0
-0.245088 -0.410539 0
-0.235833 -0.404770 0
-0.225626 -0.396543 0
-0.214532 -0.385828 0
-0.202632 -0.372640 0
-0.190031 -0.357053 0
-0.176851 -0.339196 0
-0.163232 -0.319263 0
-0.149329 -0.297508 0
-0.135303 -0.274238 0
-0.121320 -0.249804 0
-0.107540 -0.224583 0
-0.094112 -0.198958 0
-0.081163 -0.173296 0
-0.068799 -0.147926 0
-0.057093 -0.123119 0
-0.046082 -0.099065 0
-0.035769 -0.075864 0
-0.026114 -0.053504 0
-0.017034 -0.031848 0
-0.008395 -0.010611 0
0.000000 0.000000 0
0.000000 0.000000 0
-0.092248 -0.058855 0
-0.156986 -0.102472 0
-0.194571 -0.130578 0
-0.215225 -0.149201 0
-0.227362 -0.163510 0
-0.235616 -0.176350 0
-0.242148 -0.188989 0
-0.247878 -0.201904 0
-0.253173 -0.215229 0
-0.258160 -0.228953 0
-0.262870 -0.243019 0
-0.267294 -0.257343 0
-0.271403 -0.271838 0
-0.275158 -0.286403 0
-0.278514 -0.300932 0
-0.281422 -0.315309 0
-0.283827 -0.329406 0
-0.285671 -0.343085 0
-0.286893 -0.356196 0
-0.287429 -0.368581 0
-0.287216 -0.380070 0
-0.286191 -0.390486 0
-0.284295 -0.399648 0
-0.281471 -0.407368 0
-0.277672 -0.413462 0
-0.272857 -0.417744 0
-0.266997 -0.420039 0
-0.260077 -0.420180 0
-0.252095 -0.418019 0
-0.243067 -0.413431 0
-0.233030 -0.406320 0
-0.222038 -0.396629 0
-0.210169 -0.384346 0
-0.197521 -0.369515 0
-0.184216 -0.352238 0
-0.170392 -0.332685 0
-0.156206 -0.311090 0
-0.141826 -0.287747 0
-0.127423 -0.263004 0
-0.113168 -0.237243 0
-0.099221 -0.210862 0
-0.085723 -0.184250 0
-0.072789 -0.157763 0
-0.060502 -0.131697 0
-0.048909 -0.106270 0
-0.038017 -0.081601 0
-0.027789 -0.057695 0
-0.018145 -0.034422 0
-0.008948 -0.011494 0
0.000000 0.000000 0
0.000000 0.000000 0
-0.091589 -0.054254 0
-0.156002 -0.094734 0
-0.193562 -0.121161 0
-0.214344 -0.139032 0
-0.226668 -0.153071 0
-0.235129 -0.165880 0
-0.241873 -0.178612 0
-0.247820 -0.191700 0
-0.253334 -0.205256 0
-0.258546 -0.219264 0
-0.263489 -0.233665 0
-0.268156 -0.248379 0
-0.272522 -0.263318 0
-0.276550 -0.278387 0
-0.280199 -0.293483 0
-0.283420 -0.308492 0
-0.286160 -0.323289 0
-0.288360 -0.337738 0
-0.289959 -0.351691 0
-0.290892 -0.364988 0
-0.291091 -0.377459 0
-0.290490 -0.388924 0
-0.289023 -0.399197 0
-0.286629 -0.408085 0
-0.283252 -0.415394 0
-0.278844 -0.420929 0
-0.273367 -0.424500 0
-0.266797 -0.425926 0
-0.259123 -0.425040 0
-0.250353 -0.421696 0
-0.240513 -0.415773 0
-0.229652 -0.407187 0
-0.217839 -0.395898 0
-0.205167 -0.381917 0
-0.191754 -0.365318 0
-0.177736 -0.346239 0
-0.163272 -0.324890 0
-0.148532 -0.301549 0
-0.133696 -0.276554 0
-0.118946 -0.250289 0
-0.104454 -0.223165 0
-0.090374 -0.195594 0
-0.076838 -0.167959 0
-0.063940 -0.140592 0
-0.051739 -0.113740 0
-0.040249 -0.087550 0
-0.029441 -0.062044 0
-0.019232 -0.037098 0
-0.009488 -0.012414 0
0.000000 0.000000 0
0.000000 0.000000 0
-0.090854 -0.049357 0
-0.154939 -0.086532 0
-0.192501 -0.111213 0
-0.213438 -0.128315 0
-0.225966 -0.142087 0
-0.234641 -0.154870 0
-0.241600 -0.167704 0
-0.247759 -0.180968 0
-0.253485 -0.194755 0
-0.258912 -0.209045 0
-0.264075 -0.223776 0
-0.268972 -0.238869 0
-0.273579 -0.254242 0
-0.277866 -0.269801 0
-0.281793 -0.285447 0
-0.285313 -0.301071 0
-0.288375 -0.316551 0
-0.290923 -0.331754 0
-0.292893 -0.346533 0
-0.294219 -0.360731 0
-0.294831 -0.374175 0
-0.294659 -0.386686 0
-0.293633 -0.398072 0
-0.291683 -0.408136 0
-0.288747 -0.416675 0
-0.284768 -0.423485 0
-0.279700 -0.428365 0
-0.273508 -0.431118 0
-0.266173 -0.431559 0
-0.257693 -0.429521 0
-0.248084 -0.424859 0
-0.237385 -0.417462 0
-0.225658 -0.407260 0
-0.212990 -0.394232 0
-0.199492 -0.378416 0
-0.185299 -0.359921 0
-0.170568 -0.338925 0
-0.155474 -0.315684 0
-0.140202 -0.290520 0
-0.124944 -0.263813 0
-0.109887 -0.235984 0
-0.095199 -0.207465 0
-0.081028 -0.178668 0
-0.067486 -0.149960 0
-0.054645 -0.121625 0
-0.042530 -0.093841 0
-0.031118 -0.066652 0
-0.020331 -0.039942 0
-0.010030 -0.013397 0
0.000000 0.000000 0
0.000000 0.000000 0
-0.090103 -0.044199 0
-0.153868 -0.077908 0
-0.191449 -0.100767 0
-0.212555 -0.117072 0
-0.225295 -0.130570 0
-0.234188 -0.143332 0
-0.241360 -0.156270 0
-0.247726 -0.169713 0
-0.253655 -0.183732 0
-0.259284 -0.198300 0
-0.264654 -0.213354 0
-0.269763 -0.228818 0
-0.274596 -0.244610 0
-0.279123 -0.260644 0
-0.283310 -0.276825 0
-0.287112 -0.293045 0
-0.290482 -0.309189 0
-0.293364 -0.325127 0
-0.295695 -0.340715 0
-0.297409 -0.355798 0
-0.298433 -0.370204 0
-0.298693 -0.383751 0
-0.298114 -0.396248 0
-0.296621 -0.407491 0
-0.294144 -0.417272 0
-0.290617 -0.425378 0
-0.285984 -0.431595 0
-0.280201 -0.435713 0
-0.273238 -0.437530 0
-0.265081 -0.436858 0
-0.255738 -0.433528 0
-0.245236 -0.427403 0
-0.233630 -0.418381 0
-0.220996 -0.406408 0
-0.207442 -0.391488 0
-0.193097 -0.373693 0
-0.178117 -0.353169 0
-0.162679 -0.330140 0
-0.146974 -0.304909 0
-0.131204 -0.277846 0
-0.115566 -0.249372 0
-0.100248 -0.219935 0
-0.085413 -0.189977 0
-0.071193 -0.159898 0
-0.057676 -0.130024 0
-0.044902 -0.100567 0
-0.032856 -0.071596 0
-0.021466 -0.043005 0
-0.010589 -0.014460 0
0.000000 0.000000 0
0.000000 0.000000 0
-0.089369 -0.038786 0
-0.152832 -0.068867 0
-0.190445 -0.089824 0
-0.211728 -0.105301 0
-0.224685 -0.118518 0
-0.233797 -0.131260 0
-0.241180 -0.144308 0
-0.247747 -0.157933 0
-0.253870 -0.172185 0
-0.259689 -0.187029 0
-0.265249 -0.202400 0
-0.270554 -0.218225 0
-0.275592 -0.234427 0
-0.280339 -0.250921 0
-0.284765 -0.267617 0
-0.288830 -0.284414 0
-0.292489 -0.301202 0
-0.295688 -0.317853 0
-0.298367 -0.334230 0
-0.300458 -0.350178 0
-0.301888 -0.365529 0
-0.302580 -0.380102 0
-0.302454 -0.393702 0
-0.301429 -0.406124 0
-0.299426 -0.417153 0
-0.296372 -0.426569 0
-0.292201 -0.434147 0
-0.286857 -0.439665 0
-0.280300 -0.442903 0
-0.272504 -0.443653 0
-0.263464 -0.441725 0
-0.253198 -0.436952 0
-0.241749 -0.429202 0
-0.229186 -0.418389 0
-0.215607 -0.404478 0
-0.201137 -0.387505 0
-0.185931 -0.367576 0
-0.170164 -0.344884 0
-0.154034 -0.319702 0
-0.137748 -0.292382 0
-0.121520 -0.263341 0
-0.105552 -0.233037 0
-0.090027 -0.201934 0
-0.075096 -0.170468 0
-0.060866 -0.139003 0
-0.047395 -0.107792 0
-0.034680 -0.076932 0
-0.022653 -0.046326 0
-0.011172 -0.015619 0
0.000000 0.000000 0
0.000000 0.000000 0
-0.088672 -0.033109 0
-0.151858 -0.059397 0
-0.189516 -0.078367 0
-0.210984 -0.092985 0
-0.224163 -0.105916 0
-0.233495 -0.118643 0
-0.241086 -0.131807 0
-0.247849 -0.145621 0
-0.254156 -0.160109 0
-0.260152 -0.175230 0
-0.265885 -0.190915 0
-0.271366 -0.207095 0
-0.276588 -0.223694 0
-0.281531 -0.240633 0
-0.286172 -0.257827 0
-0.290475 -0.275182 0
-0.294400 -0.292589 0
-0.297896 -0.309931 0
-0.300905 -0.327072 0
-0.303361 -0.343863 0
-0.305188 -0.360139 0
-0.306308 -0.375720 0
-0.306636 -0.390411 0
-0.306086 -0.404005 0
-0.304572 -0.416284 0
-0.302011 -0.427019 0
-0.298328 -0.435979 0
-0.293455 -0.442925 0
-0.287338 -0.447625 0
-0.279941 -0.449851 0
-0.271246 -0.449389 0
-0.261257 -0.446047 0
-0.250006 -0.439661 0
-0.237552 -0.430110 0
-0.223985 -0.417324 0
-0.209422 -0.401294 0
-0.194015 -0.382091 0
-0.177938 -0.359865 0
-0.161394 -0.334858 0
-0.144597 -0.307395 0
-0.127771 -0.277882 0
-0.111136 -0.246776 0
-0.094895 -0.214562 0
-0.079221 -0.181704 0
-0.064241 -0.148607 0
-0.050032 -0.115563 0
-0.036606 -0.082701 0
-0.023905 -0.049935 0
-0.011786 -0.016886 0
0.000000 0.000000 0
0.000000 0.000000 0
-0.088031 -0.027153 0
-0.150972 -0.049474 0
-0.188690 -0.066374 0
-0.210350 -0.080102 0
-0.223755 -0.092744 0
-0.233310 -0.105464 0
-0.241109 -0.118756 0
-0.248061 -0.132769 0
-0.254543 -0.147501 0
-0.260701 -0.162901 0
-0.266590 -0.178901 0
-0.272225 -0.195430 0
-0.277605 -0.212417 0
-0.282719 -0.229787 0
-0.287546 -0.247462 0
-0.292061 -0.265351 0
-0.296225 -0.283356 0
-0.299993 -0.301361 0
-0.303309 -0.319240 0
-0.306110 -0.336847 0
-0.308321 -0.354023 0
-0.309860 -0.370589 0
-0.310641 -0.386354 0
-0.310571 -0.401108 0
-0.309557 -0.414632 0
-0.307509 -0.426691 0
-0.304338 -0.437044 0
-0.299967 -0.445445 0
-0.294328 -0.451643 0
-0.287370 -0.455394 0
-0.279062 -0.456461 0
-0.269396 -0.454624 0
-0.258388 -0.449691 0
-0.246087 -0.441505 0
-0.232571 -0.429956 0
-0.217952 -0.414996 0
-0.202373 -0.396649 0
-0.186010 -0.375026 0
-0.169065 -0.350327 0
-0.151762 -0.322847 0
-0.134334 -0.292968 0
-0.117019 -0.261144 0
-0.100039 -0.227866 0
-0.083588 -0.193627 0
-0.067819 -0.158866 0
-0.052831 -0.123915 0
-0.038652 -0.088939 0
-0.025234 -0.053860 0
-0.012437 -0.018272 0
0.000000 0.000000 0
0.000000 0.000000 0
-0.087461 -0.020894 0
-0.150198 -0.039067 0
-0.187994 -0.053811 0
-0.209855 -0.066623 0
-0.223492 -0.078979 0
-0.233273 -0.091706 0
-0.241279 -0.105142 0
-0.248416 -0.119368 0
-0.255062 -0.134356 0
-0.261367 -0.150043 0
-0.267391 -0.166359 0
-0.273156 -0.183235 0
-0.278668 -0.200602 0
-0.283921 -0.218391 0
-0.288905 -0.236529 0
-0.293598 -0.254931 0
-0.297970 -0.273507 0
-0.301980 -0.292148 0
-0.305577 -0.310734 0
-0.308700 -0.329127 0
-0.311275 -0.347173 0
-0.313221 -0.364697 0
-0.314448 -0.381511 0
-0.314859 -0.397408 0
-0.314354 -0.412165 0
-0.312834 -0.425544 0
-0.310200 -0.437299 0
-0.306361 -0.447172 0
-0.301236 -0.454899 0
-0.294761 -0.460218 0
-0.286887 -0.462872 0
-0.277592 -0.462614 0
-0.266877 -0.459220 0
-0.254777 -0.452499 0
-0.241357 -0.442301 0
-0.226721 -0.428536 0
-0.211006 -0.411181 0
-0.194383 -0.390301 0
-0.177057 -0.366051 0
-0.159256 -0.338687 0
-0.141225 -0.308563 0
-0.123217 -0.276116 0
-0.105475 -0.241840 0
-0.088216 -0.206243 0
-0.071620 -0.169798 0
-0.055807 -0.132876 0
-0.040828 -0.095672 0
-0.026648 -0.058122 0
-0.013130 -0.019786 0
0.000000 0.000000 0
0.000000 0.000000 0
-0.086982 -0.014305 0
-0.149565 -0.028135 0
-0.187460 -0.040639 0
-0.209532 -0.052515 0
-0.223408 -0.064592 0
-0.233420 -0.077346 0
-0.241632 -0.090949 0
-0.248949 -0.105409 0
-0.255747 -0.120669 0
-0.262183 -0.136656 0
-0.268320 -0.153295 0
-0.274189 -0.170517 0
-0.279802 -0.188259 0
-0.285162 -0.206456 0
-0.290267 -0.225039 0
-0.295102 -0.243934 0
-0.299645 -0.263053 0
-0.303863 -0.282300 0
-0.307708 -0.301560 0
-0.311124 -0.320704 0
-0.314040 -0.339584 0
-0.316375 -0.358034 0
-0.318036 -0.375867 0
-0.318925 -0.392881 0
-0.318933 -0.408852 0
-0.317954 -0.423542 0
-0.315877 -0.436698 0
-0.312600 -0.448053 0
-0.308028 -0.457334 0
-0.302078 -0.464260 0
-0.294688 -0.468553 0
-0.285815 -0.469942 0
-0.275448 -0.468172 0
-0.263602 -0.463015 0
-0.250330 -0.454282 0
-0.235724 -0.441837 0
-0.219912 -0.425612 0
-0.203062 -0.405618 0
-0.185377 -0.381963 0
-0.167090 -0.354859 0
-0.148457 -0.324621 0
-0.129746 -0.291661 0
-0.111220 -0.256465 0
-0.093122 -0.219551 0
-0.075658 -0.181415 0
-0.058975 -0.142464 0