# vtk DataFile Version 2.0
generated by CFD-lab course output (written by Tobias Neckel) 
ASCII

DATASET STRUCTURED_GRID
DIMENSIONS  51 51 1 
POINTS 2601 float

0.000000 0.000000 0
0.020000 0.000000 0
0.040000 0.000000 0
0.060000 0.000000 0
0.080000 0.000000 0
0.100000 0.000000 0
0.120000 0.000000 0
0.140000 0.000000 0
0.160000 0.000000 0
0.180000 0.000000 0
0.200000 0.000000 0
0.220000 0.000000 0
0.240000 0.000000 0
0.260000 0.000000 0
0.280000 0.000000 0
0.300000 0.000000 0
0.320000 0.000000 0
0.340000 0.000000 0
0.360000 0.000000 0
0.380000 0.000000 0
0.400000 0.000000 0
0.420000 0.000000 0
0.440000 0.000000 0
0.460000 0.000000 0
0.480000 0.000000 0
0.500000 0.000000 0
0.520000 0.000000 0
0.540000 0.000000 0
0.560000 0.000000 0
0.580000 0.000000 0
0.600000 0.000000 0
0.620000 0.000000 0
0.640000 0.000000 0
0.660000 0.000000 0
0.680000 0.000000 0
0.700000 0.000000 0
0.720000 0.000000 0
0.740000 0.000000 0
0.760000 0.000000 0
0.780000 0.000000 0
0.800000 0.000000 0
0.820000 0.000000 0
0.840000 0.000000 0
0.860000 0.000000 0
0.880000 0.000000 0
0.900000 0.000000 0
0.920000 0.000000 0
0.940000 0.000000 0
0.960000 0.000000 0
0.980000 0.000000 0
1.000000 0.000000 0
0.000000 0.020000 0
0.020000 0.020000 0
0.040000 0.020000 0
0.060000 0.020000 0
0.080000 0.020000 0
0.100000 0.020000 0
0.120000 0.020000 0
0.140000 0.020000 0
0.160000 0.020000 0
0.180000 0.020000 0
0.200000 0.020000 0
0.220000 0.020000 0
0.240000 0.020000 0
0.260000 0.020000 0
0.280000 0.020000 0
0.300000 0.020000 0
0.320000 0.020000 0
0.340000 0.020000 0
0.360000 0.020000 0
0.380000 0.020000 0
0.400000 0.020000 0
0.420000 0.020000 0
0.440000 0.020000 0
0.460000 0.020000 0
0.480000 0.020000 0
0.500000 0.020000 0
0.520000 0.020000 0
0.540000 0.020000 0
0.560000 0.020000 0
0.580000 0.020000 0
0.600000 0.020000 0
0.620000 0.020000 0
0.640000 0.020000 0
0.660000 0.020000 0
0.680000 0.020000 0
0.700000 0.020000 0
0.720000 0.020000 0
0.740000 0.020000 0
0.760000 0.020000 0
0.780000 0.020000 0
0.800000 0.020000 0
0.820000 0.020000 0
0.840000 0.020000 0
0.860000 0.020000 0
0.880000 0.020000 0
0.900000 0.020000 0
0.920000 0.020000 0
0.940000 0.020000 0
0.960000 0.020000 0
0.980000 0.020000 0
1.000000 0.020000 0
0.000000 0.040000 0
0.020000 0.040000 0
0.040000 0.040000 0
0.060000 0.040000 0
0.080000 0.040000 0
0.100000 0.040000 0
0.120000 0.040000 0
0.140000 0.040000 0
0.160000 0.040000 0
0.180000 0.040000 0
0.200000 0.040000 0
0.220000 0.040000 0
0.240000 0.040000 0
0.260000 0.040000 0
0.280000 0.040000 0
0.300000 0.040000 0
0.320000 0.040000 0
0.340000 0.040000 0
0.360000 0.040000 0
0.380000 0.040000 0
0.400000 0.040000 0
0.420000 0.040000 0
0.440000 0.040000 0
0.460000 0.040000 0
0.480000 0.040000 0
0.500000 0.040000 0
0.520000 0.040000 0
0.540000 0.040000 0
0.560000 0.040000 0
0.580000 0.040000 0
0.600000 0.040000 0
0.620000 0.040000 0
0.640000 0.040000 0
0.660000 0.040000 0
0.680000 0.040000 0
0.700000 0.040000 0
0.720000 0.040000 0
0.740000 0.040000 0
0.760000 0.040000 0
0.780000 0.040000 0
0.800000 0.040000 0
0.820000 0.040000 0
0.840000 0.040000 0
0.860000 0.040000 0
0.880000 0.040000 0
0.900000 0.040000 0
0.920000 0.040000 0
0.940000 0.040000 0
0.960000 0.040000 0
0.980000 0.040000 0
1.000000 0.040000 0
0.000000 0.060000 0
0.020000 0.060000 0
0.040000 0.060000 0
0.060000 0.060000 0
0.080000 0.060000 0
0.100000 0.060000 0
0.120000 0.060000 0
0.140000 0.060000 0
0.160000 0.060000 0
0.180000 0.060000 0
0.200000 0.060000 0
0.220000 0.060000 0
0.240000 0.060000 0
0.260000 0.060000 0
0.280000 0.060000 0
0.300000 0.060000 0
0.320000 0.060000 0
0.340000 0.060000 0
0.360000 0.060000 0
0.380000 0.060000 0
0.400000 0.060000 0
0.420000 0.060000 0
0.440000 0.060000 0
0.460000 0.060000 0
0.480000 0.060000 0
0.500000 0.060000 0
0.520000 0.060000 0
0.540000 0.060000 0
0.560000 0.060000 0
0.580000 0.060000 0
0.600000 0.060000 0
0.620000 0.060000 0
0.640000 0.060000 0
0.660000 0.060000 0
0.680000 0.060000 0
0.700000 0.060000 0
0.720000 0.060000 0
0.740000 0.060000 0
0.760000 0.060000 0
0.780000 0.060000 0
0.800000 0.060000 0
0.820000 0.060000 0
0.840000 0.060000 0
0.860000 0.060000 0
0.880000 0.060000 0
0.900000 0.060000 0
0.920000 0.060000 0
0.940000 0.060000 0
0.960000 0.060000 0
0.980000 0.060000 0
1.000000 0.060000 0
0.000000 0.080000 0
0.020000 0.080000 0
0.040000 0.080000 0
0.060000 0.080000 0
0.080000 0.080000 0
0.100000 0.080000 0
0.120000 0.080000 0
0.140000 0.080000 0
0.160000 0.080000 0
0.180000 0.080000 0
0.200000 0.080000 0
0.220000 0.080000 0
0.240000 0.080000 0
0.260000 0.080000 0
0.280000 0.080000 0
0.300000 0.080000 0
0.320000 0.080000 0
0.340000 0.080000 0
0.360000 0.080000 0
0.380000 0.080000 0
0.400000 0.080000 0
0.420000 0.080000 0
0.440000 0.080000 0
0.460000 0.080000 0
0.480000 0.080000 0
0.500000 0.080000 0
0.520000 0.080000 0
0.540000 0.080000 0
0.560000 0.080000 0
0.580000 0.080000 0
0.600000 0.080000 0
0.620000 0.080000 0
0.640000 0.080000 0
0.660000 0.080000 0
0.680000 0.080000 0
0.700000 0.080000 0
0.720000 0.080000 0
0.740000 0.080000 0
0.760000 0.080000 0
0.780000 0.080000 0
0.800000 0.080000 0
0.820000 0.080000 0
0.840000 0.080000 0
0.860000 0.080000 0
0.880000 0.080000 0
0.900000 0.080000 0
0.920000 0.080000 0
0.940000 0.080000 0
0.960000 0.080000 0
0.980000 0.080000 0
1.000000 0.080000 0
0.000000 0.100000 0
0.020000 0.100000 0
0.040000 0.100000 0
0.060000 0.100000 0
0.080000 0.100000 0
0.100000 0.100000 0
0.120000 0.100000 0
0.140000 0.100000 0
0.160000 0.100000 0
0.180000 0.100000 0
0.200000 0.100000 0
0.220000 0.100000 0
0.240000 0.100000 0
0.260000 0.100000 0
0.280000 0.100000 0
0.300000 0.100000 0
0.320000 0.100000 0
0.340000 0.100000 0
0.360000 0.100000 0
0.380000 0.100000 0
0.400000 0.100000 0
0.420000 0.100000 0
0.440000 0.100000 0
0.460000 0.100000 0
0.480000 0.100000 0
0.500000 0.100000 0
0.520000 0.100000 0
0.540000 0.100000 0
0.560000 0.100000 0
0.580000 0.100000 0
0.600000 0.100000 0
0.620000 0.100000 0
0.640000 0.100000 0
0.660000 0.100000 0
0.680000 0.100000 0
0.700000 0.100000 0
0.720000 0.100000 0
0.740000 0.100000 0
0.760000 0.100000 0
0.780000 0.100000 0
0.800000 0.100000 0
0.820000 0.100000 0
0.840000 0.100000 0
0.860000 0.100000 0
0.880000 0.100000 0
0.900000 0.100000 0
0.920000 0.100000 0
0.940000 0.100000 0
0.960000 0.100000 0
0.980000 0.100000 0
1.000000 0.100000 0
0.000000 0.120000 0
0.020000 0.120000 0
0.040000 0.120000 0
0.060000 0.120000 0
0.080000 0.120000 0
0.100000 0.120000 0
0.120000 0.120000 0
0.140000 0.120000 0
0.160000 0.120000 0
0.180000 0.120000 0
0.200000 0.120000 0
0.220000 0.120000 0
0.240000 0.120000 0
0.260000 0.120000 0
0.280000 0.120000 0
0.300000 0.120000 0
0.320000 0.120000 0
0.340000 0.120000 0
0.360000 0.120000 0
0.380000 0.120000 0
0.400000 0.120000 0
0.420000 0.120000 0
0.440000 0.120000 0
0.460000 0.120000 0
0.480000 0.120000 0
0.500000 0.120000 0
0.520000 0.120000 0
0.540000 0.120000 0
0.560000 0.120000 0
0.580000 0.120000 0
0.600000 0.120000 0
0.620000 0.120000 0
0.640000 0.120000 0
0.660000 0.120000 0
0.680000 0.120000 0
0.700000 0.120000 0
0.720000 0.120000 0
0.740000 0.120000 0
0.760000 0.120000 0
0.780000 0.120000 0
0.800000 0.120000 0
0.820000 0.120000 0
0.840000 0.120000 0
0.860000 0.120000 0
0.880000 0.120000 0
0.900000 0.120000 0
0.920000 0.120000 0
0.940000 0.120000 0
0.960000 0.120000 0
0.980000 0.120000 0
1.000000 0.120000 0
0.000000 0.140000 0
0.020000 0.140000 0
0.040000 0.140000 0
0.060000 0.140000 0
0.080000 0.140000 0
0.100000 0.140000 0
0.120000 0.140000 0
0.140000 0.140000 0
0.160000 0.140000 0
0.180000 0.140000 0
0.200000 0.140000 0
0.220000 0.140000 0
0.240000 0.140000 0
0.260000 0.140000 0
0.280000 0.140000 0
0.300000 0.140000 0
0.320000 0.140000 0
0.340000 0.140000 0
0.360000 0.140000 0
0.380000 0.140000 0
0.400000 0.140000 0
0.420000 0.140000 0
0.440000 0.140000 0
0.460000 0.140000 0
0.480000 0.140000 0
0.500000 0.140000 0
0.520000 0.140000 0
0.540000 0.140000 0
0.560000 0.140000 0
0.580000 0.140000 0
0.600000 0.140000 0
0.620000 0.140000 0
0.640000 0.140000 0
0.660000 0.140000 0
0.680000 0.140000 0
0.700000 0.140000 0
0.720000 0.140000 0
0.740000 0.140000 0
0.760000 0.140000 0
0.780000 0.140000 0
0.800000 0.140000 0
0.820000 0.140000 0
0.840000 0.140000 0
0.860000 0.140000 0
0.880000 0.140000 0
0.900000 0.140000 0
0.920000 0.140000 0
0.940000 0.140000 0
0.960000 0.140000 0
0.980000 0.140000 0
1.000000 0.140000 0
0.000000 0.160000 0
0.020000 0.160000 0
0.040000 0.160000 0
0.060000 0.160000 0
0.080000 0.160000 0
0.100000 0.160000 0
0.120000 0.160000 0
0.140000 0.160000 0
0.160000 0.160000 0
0.180000 0.160000 0
0.200000 0.160000 0
0.220000 0.160000 0
0.240000 0.160000 0
0.260000 0.160000 0
0.280000 0.160000 0
0.300000 0.160000 0
0.320000 0.160000 0
0.340000 0.160000 0
0.360000 0.160000 0
0.380000 0.160000 0
0.400000 0.160000 0
0.420000 0.160000 0
0.440000 0.160000 0
0.460000 0.160000 0
0.480000 0.160000 0
0.500000 0.160000 0
0.520000 0.160000 0
0.540000 0.160000 0
0.560000 0.160000 0
0.580000 0.160000 0
0.600000 0.160000 0
0.620000 0.160000 0
0.640000 0.160000 0
0.660000 0.160000 0
0.680000 0.160000 0
0.700000 0.160000 0
0.720000 0.160000 0
0.740000 0.160000 0
0.760000 0.160000 0
0.780000 0.160000 0
0.800000 0.160000 0
0.820000 0.160000 0
0.840000 0.160000 0
0.860000 0.160000 0
0.880000 0.160000 0
0.900000 0.160000 0
0.920000 0.160000 0
0.940000 0.160000 0
0.960000 0.160000 0
0.980000 0.160000 0
1.000000 0.160000 0
0.000000 0.180000 0
0.020000 0.180000 0
0.040000 0.180000 0
0.060000 0.180000 0
0.080000 0.180000 0
0.100000 0.180000 0
0.120000 0.180000 0
0.140000 0.180000 0
0.160000 0.180000 0
0.180000 0.180000 0
0.200000 0.180000 0
0.220000 0.180000 0
0.240000 0.180000 0
0.260000 0.180000 0
0.280000 0.180000 0
0.300000 0.180000 0
0.320000 0.180000 0
0.340000 0.180000 0
0.360000 0.180000 0
0.380000 0.180000 0
0.400000 0.180000 0
0.420000 0.180000 0
0.440000 0.180000 0
0.460000 0.180000 0
0.480000 0.180000 0
0.500000 0.180000 0
0.520000 0.180000 0
0.540000 0.180000 0
0.560000 0.180000 0
0.580000 0.180000 0
0.600000 0.180000 0
0.620000 0.180000 0
[...]
POINT_DATA 2601 

VECTORS velocity float
0.000000 0.000000 0
0.000001 0.000000 0
0.000001 0.000000 0
0.000001 0.000000 0
0.000001 0.000000 0
0.000001 0.000000 0
0.000001 0.000000 0
0.000001 0.000000 0
0.000001 0.000000 0
0.000000 0.000000 0
0.000000 0.000000 0
0.000000 0.000000 0
-0.000000 0.000000 0
-0.000000 0.000000 0
-0.000000 0.000000 0
-0.000000 0.000000 0
-0.000001 0.000000 0
-0.000001 0.000000 0
-0.000001 0.000000 0
-0.000001 0.000000 0
-0.000001 0.000000 0
-0.000001 0.000000 0
-0.000001 0.000000 0
-0.000001 0.000000 0
-0.000001 0.000000 0
-0.000001 0.000000 0
-0.000001 0.000000 0
-0.000001 0.000000 0
-0.000001 0.000000 0
-0.000001 0.000000 0
-0.000001 0.000000 0
-0.000001 0.000000 0
-0.000001 0.000000 0
-0.000001 0.000000 0
-0.000001 0.000000 0
-0.000001 0.000000 0
-0.000001 0.000000 0
-0.000001 0.000000 0
-0.000001 0.000000 0
-0.000001 0.000000 0
-0.000001 0.000000 0
-0.000001 0.000000 0
-0.000001 0.000000 0
-0.000001 0.000000 0
-0.000001 0.000000 0
-0.000001 0.000000 0
-0.000001 0.000000 0
-0.000001 0.000000 0
-0.000000 0.000000 0
-0.000000 0.000000 0
0.000000 0.000000 0
0.000000 0.000003 0
0.000003 0.000005 0
0.000003 0.000006 0
0.000002 0.000006 0
0.000002 0.000006 0
0.000002 0.000007 0
0.000002 0.000007 0
0.000001 0.000007 0
0.000001 0.000007 0
0.000001 0.000007 0
0.000000 0.000007 0
0.000000 0.000007 0
-0.000000 0.000007 0
-0.000000 0.000007 0
-0.000001 0.000007 0
-0.000001 0.000007 0
-0.000001 0.000006 0
-0.000001 0.000006 0
-0.000002 0.000006 0
-0.000002 0.000005 0
-0.000002 0.000005 0
-0.000002 0.000005 0
-0.000002 0.000005 0
-0.000002 0.000004 0
-0.000002 0.000004 0
-0.000002 0.000003 0
-0.000002 0.000003 0
-0.000002 0.000003 0
-0.000002 0.000002 0
-0.000002 0.000002 0
-0.000002 0.000002 0
-0.000002 0.000001 0
-0.000002 0.000001 0
-0.000002 0.000000 0
-0.000002 0.000000 0
-0.000002 -0.000000 0
-0.000002 -0.000001 0
-0.000002 -0.000001 0
-0.000002 -0.000002 0
-0.000002 -0.000002 0
-0.000002 -0.000002 0
-0.000002 -0.000003 0
-0.000002 -0.000003 0
-0.000002 -0.000004 0
-0.000002 -0.000004 0
-0.000002 -0.000004 0
-0.000001 -0.000004 0
-0.000001 -0.000005 0
-0.000001 -0.000005 0
-0.000000 -0.000005 0
0.000000 -0.000002 0
0.000000 0.000004 0
0.000003 0.000009 0
0.000003 0.000009 0
0.000003 0.000010 0
0.000003 0.000010 0
0.000002 0.000010 0
0.000002 0.000011 0
0.000001 0.000011 0
0.000001 0.000011 0
0.000001 0.000011 0
0.000000 0.000011 0
-0.000000 0.000011 0
-0.000000 0.000011 0
-0.000001 0.000011 0
-0.000001 0.000010 0
-0.000001 0.000010 0
-0.000002 0.000010 0
-0.000002 0.000009 0
-0.000002 0.000009 0
-0.000002 0.000008 0
-0.000002 0.000008 0
-0.000002 0.000007 0
-0.000002 0.000007 0
-0.000002 0.000006 0
-0.000003 0.000006 0
-0.000003 0.000005 0
-0.000003 0.000005 0
-0.000003 0.000004 0
-0.000003 0.000003 0
-0.000003 0.000003 0
-0.000003 0.000002 0
-0.000003 0.000002 0
-0.000003 0.000001 0
-0.000003 0.000000 0
-0.000003 -0.000000 0
-0.000003 -0.000001 0
-0.000003 -0.000002 0
-0.000003 -0.000002 0
-0.000003 -0.000003 0
-0.000003 -0.000003 0
-0.000003 -0.000004 0
-0.000003 -0.000005 0
-0.000003 -0.000005 0
-0.000002 -0.000006 0
-0.000002 -0.000006 0
-0.000002 -0.000007 0
-0.000002 -0.000007 0
-0.000001 -0.000007 0
-0.000001 -0.000008 0
-0.000000 -0.000008 0
0.000000 -0.000004 0
0.000000 0.000006 0
0.000004 0.000013 0
0.000004 0.000013 0
0.000003 0.000014 0
0.000003 0.000015 0
0.000003 0.000015 0
0.000002 0.000016 0
0.000002 0.000016 0
0.000001 0.000016 0
0.000001 0.000016 0
0.000000 0.000016 0
-0.000000 0.000016 0
-0.000001 0.000015 0
-0.000001 0.000015 0
-0.000001 0.000015 0
-0.000002 0.000014 0
-0.000002 0.000014 0
-0.000002 0.000013 0
-0.000003 0.000012 0
-0.000003 0.000012 0
-0.000003 0.000011 0
-0.000003 0.000010 0
-0.000003 0.000009 0
-0.000003 0.000009 0
-0.000003 0.000008 0
-0.000003 0.000007 0
-0.000003 0.000006 0
-0.000003 0.000005 0
-0.000003 0.000005 0
-0.000003 0.000004 0
-0.000003 0.000003 0
-0.000003 0.000002 0
-0.000004 0.000001 0
-0.000004 0.000000 0
-0.000004 -0.000001 0
-0.000004 -0.000002 0
-0.000004 -0.000003 0
-0.000004 -0.000003 0
-0.000004 -0.000004 0
-0.000004 -0.000005 0
-0.000004 -0.000006 0
-0.000003 -0.000007 0
-0.000003 -0.000008 0
-0.000003 -0.000009 0
-0.000003 -0.000009 0
-0.000003 -0.000010 0
-0.000002 -0.000011 0
-0.000002 -0.000011 0
-0.000001 -0.000011 0
-0.000001 -0.000012 0
0.000000 -0.000006 0
0.000000 0.000009 0
0.000005 0.000018 0
0.000005 0.000019 0
0.000004 0.000020 0
0.000004 0.000020 0
0.000003 0.000021 0
0.000002 0.000021 0
0.000002 0.000022 0
0.000001 0.000022 0
0.000001 0.000022 0
0.000000 0.000022 0
-0.000000 0.000021 0
-0.000001 0.000021 0
-0.000002 0.000020 0
-0.000002 0.000020 0
-0.000002 0.000019 0
-0.000003 0.000018 0
-0.000003 0.000017 0
-0.000003 0.000017 0
-0.000004 0.000016 0
-0.000004 0.000015 0
-0.000004 0.000014 0
-0.000004 0.000012 0
-0.000004 0.000011 0
-0.000004 0.000010 0
-0.000004 0.000009 0
-0.000004 0.000008 0
-0.000004 0.000007 0
-0.000004 0.000006 0
-0.000004 0.000005 0
-0.000004 0.000004 0
-0.000005 0.000002 0
-0.000005 0.000001 0
-0.000005 -0.000000 0
-0.000005 -0.000001 0
-0.000005 -0.000003 0
-0.000005 -0.000004 0
-0.000005 -0.000005 0
-0.000005 -0.000006 0
-0.000005 -0.000008 0
-0.000005 -0.000009 0
-0.000004 -0.000010 0
-0.000004 -0.000011 0
-0.000004 -0.000012 0
-0.000004 -0.000013 0
-0.000003 -0.000014 0
-0.000003 -0.000015 0
-0.000002 -0.000016 0
-0.000001 -0.000016 0
-0.000001 -0.000016 0
0.000000 -0.000008 0
0.000000 0.000012 0
0.000006 0.000024 0
0.000006 0.000025 0
0.000005 0.000027 0
0.000004 0.000028 0
0.000004 0.000028 0
0.000003 0.000029 0
0.000002 0.000029 0
0.000001 0.000029 0
0.000001 0.000029 0
-0.000000 0.000029 0
-0.000001 0.000029 0
-0.000002 0.000028 0
-0.000002 0.000027 0
-0.000003 0.000026 0
-0.000003 0.000025 0
-0.000004 0.000024 0
-0.000004 0.000023 0
-0.000004 0.000022 0
-0.000005 0.000020 0
-0.000005 0.000019 0
-0.000005 0.000018 0
-0.000005 0.000016 0
-0.000005 0.000015 0
-0.000005 0.000013 0
-0.000006 0.000012 0
-0.000006 0.000010 0
-0.000006 0.000009 0
-0.000006 0.000007 0
-0.000006 0.000006 0
-0.000006 0.000004 0
-0.000006 0.000003 0
-0.000006 0.000001 0
-0.000006 -0.000001 0
-0.000006 -0.000002 0
-0.000006 -0.000004 0
-0.000006 -0.000006 0
-0.000006 -0.000007 0
-0.000006 -0.000009 0
-0.000006 -0.000011 0
-0.000006 -0.000013 0
-0.000006 -0.000014 0
-0.000006 -0.000016 0
-0.000005 -0.000017 0
-0.000005 -0.000018 0
-0.000004 -0.000020 0
-0.000004 -0.000021 0
-0.000003 -0.000021 0
-0.000002 -0.000022 0
-0.000001 -0.000022 0
0.000000 -0.000011 0
0.000000 0.000016 0
0.000008 0.000032 0
0.000007 0.000034 0
0.000006 0.000035 0
0.000005 0.000037 0
0.000004 0.000038 0
0.000003 0.000038 0
0.000002 0.000038 0
0.000001 0.000039 0
0.000000 0.000038 0
-0.000001 0.000038 0
-0.000002 0.000037 0
-0.000002 0.000036 0
-0.000003 0.000035 0
-0.000004 0.000034 0
-0.000005 0.000033 0
-0.000005 0.000031 0
-0.000006 0.000030 0
-0.000006 0.000028 0
-0.000006 0.000026 0
-0.000007 0.000024 0
-0.000007 0.000022 0
-0.000007 0.000021 0
-0.000007 0.000019 0
-0.000007 0.000017 0
-0.000007 0.000015 0
-0.000007 0.000013 0
-0.000007 0.000011 0
-0.000007 0.000009 0
-0.000008 0.000007 0
-0.000008 0.000005 0
-0.000008 0.000003 0
-0.000008 0.000001 0
-0.000008 -0.000002 0
-0.000008 -0.000004 0
-0.000008 -0.000006 0
-0.000008 -0.000008 0
-0.000008 -0.000011 0
-0.000008 -0.000013 0
-0.000008 -0.000015 0
-0.000008 -0.000017 0
-0.000008 -0.000019 0
-0.000007 -0.000021 0
-0.000007 -0.000023 0
-0.000006 -0.000025 0
-0.000005 -0.000026 0
-0.000005 -0.000028 0
-0.000004 -0.000029 0
-0.000002 -0.000030 0
-0.000001 -0.000030 0
0.000000 -0.000015 0
0.000000 0.000021 0
0.000010 0.000043 0
0.000009 0.000045 0
0.000008 0.000047 0
0.000006 0.000048 0
0.000005 0.000049 0
0.000004 0.000050 0
0.000002 0.000050 0
0.000001 0.000050 0
-0.000000 0.000050 0
-0.000001 0.000049 0
-0.000003 0.000048 0
-0.000004 0.000047 0
-0.000005 0.000045 0
-0.000005 0.000044 0
-0.000006 0.000042 0
-0.000007 0.000040 0
-0.000007 0.000038 0
-0.000008 0.000035 0
-0.000008 0.000033 0
-0.000009 0.000031 0
-0.000009 0.000028 0
-0.000009 0.000026 0
-0.000009 0.000023 0
-0.000009 0.000021 0
-0.000009 0.000018 0
-0.000010 0.000016 0
-0.000010 0.000013 0
-0.000010 0.000011 0
-0.000010 0.000008 0
-0.000010 0.000005 0
-0.000010 0.000003 0
-0.000010 -0.000000 0
-0.000011 -0.000003 0
-0.000011 -0.000006 0
-0.000011 -0.000009 0
-0.000011 -0.000012 0
-0.000011 -0.000015 0
-0.000011 -0.000018 0
-0.000011 -0.000021 0
-0.000010 -0.000023 0
-0.000010 -0.000026 0
-0.000010 -0.000029 0
-0.000009 -0.000031 0
-0.000008 -0.000033 0
-0.000007 -0.000035 0
-0.000006 -0.000037 0
-0.000005 -0.000038 0
-0.000003 -0.000039 0
-0.000002 -0.000040 0
0.000000 -0.000020 0
0.000000 0.000027 0
0.000012 0.000056 0
0.000011 0.000058 0
0.000009 0.000060 0
0.000008 0.000062 0
0.000006 0.000063 0
0.000004 0.000064 0
0.000003 0.000064 0
0.000001 0.000064 0
-0.000001 0.000063 0
-0.000002 0.000062 0
-0.000004 0.000061 0
-0.000005 0.000059 0
-0.000006 0.000057 0
-0.000008 0.000055 0
-0.000008 0.000053 0
-0.000009 0.000050 0
-0.000010 0.000047 0
-0.000011 0.000044 0
-0.000011 0.000041 0
-0.000011 0.000038 0
-0.000012 0.000035 0
-0.000012 0.000032 0
-0.000012 0.000029 0
-0.000012 0.000026 0
-0.000012 0.000022 0
-0.000012 0.000019 0
-0.000013 0.000016 0
-0.000013 0.000012 0
-0.000013 0.000009 0
-0.000013 0.000006 0
-0.000013 0.000002 0
-0.000014 -0.000001 0
-0.000014 -0.000005 0
-0.000014 -0.000009 0
-0.000014 -0.000013 0
-0.000014 -0.000016 0
-0.000014 -0.000020 0
-0.000014 -0.000024 0
-0.000014 -0.000028 0
-0.000014 -0.000031 0
-0.000013 -0.000035 0
-0.000012 -0.000038 0
-0.000011 -0.000041 0
-0.000010 -0.000044 0
-0.000009 -0.000046 0
-0.000008 -0.000049 0
-0.000006 -0.000050 0
-0.000004 -0.000052 0
-0.000002 -0.000052 0
0.000000 -0.000026 0
0.000000 0.000035 0
0.000015 0.000072 0
0.000014 0.000075 0
0.000011 0.000078 0
0.000009 0.000080 0
0.000007 0.000081 0
0.000005 0.000082 0
0.000002 0.000082 0
0.000000 0.000081 0
-0.000002 0.000080 0
-0.000004 0.000079 0
-0.000006 0.000077 0
-0.000007 0.000075 0
-0.000009 0.000072 0
-0.000010 0.000069 0
-0.000011 0.000066 0
-0.000012 0.000062 0
-0.000013 0.000059 0
-0.000014 0.000055 0
-0.000014 0.000051 0
-0.000015 0.000047 0
-0.000015 0.000043 0
-0.000015 0.000039 0
-0.000016 0.000035 0
-0.000016 0.000031 0
-0.000016 0.000027 0
-0.000016 0.000023 0
-0.000016 0.000019 0
-0.000017 0.000014 0
-0.000017 0.000010 0
-0.000017 0.000006 0
-0.000017 0.000001 0
-0.000018 -0.000003 0
-0.000018 -0.000008 0
-0.000018 -0.000013 0
-0.000018 -0.000017 0
-0.000019 -0.000022 0
-0.000019 -0.000027 0
-0.000018 -0.000032 0
-0.000018 -0.000037 0
-0.000018 -0.000041 0
-0.000017 -0.000046 0
-0.000016 -0.000050 0
-0.000015 -0.000054 0
-0.000013 -0.000057 0
-0.000012 -0.000061 0
-0.000010 -0.000063 0
-0.000008 -0.000065 0
-0.000005 -0.000067 0
-0.000003 -0.000068 0
0.000000 -0.000034 0
0.000000 0.000045 0
0.000019 0.000093 0
0.000016 0.000096 0
0.000014 0.000099 0
0.000011 0.000101 0
0.000008 0.000102 0
0.000005 0.000103 0
0.000002 0.000103 0
-0.000001 0.000102 0
-0.000003 0.000101 0
-0.000006 0.000099 0
-0.000008 0.000096 0
-0.000010 0.000093 0
-0.000012 0.000090 0
-0.000014 0.000086 0
-0.000015 0.000082 0
-0.000016 0.000077 0
-0.000017 0.000073 0
-0.000018 0.000068 0
-0.000019 0.000063 0
-0.000019 0.000058 0
-0.000020 0.000053 0
-0.000020 0.000048 0
-0.000020 0.000043 0
-0.000021 0.000038 0
-0.000021 0.000032 0
-0.000021 0.000027 0
-0.000021 0.000022 0
-0.000021 0.000016 0
-0.000022 0.000011 0
-0.000022 0.000005 0
-0.000023 -0.000000 0
-0.000023 -0.000006 0
-0.000023 -0.000012 0
-0.000024 -0.000018 0
-0.000024 -0.000024 0
-0.000024 -0.000030 0
-0.000024 -0.000036 0
-0.000024 -0.000042 0
-0.000023 -0.000048 0
-0.000023 -0.000054 0
-0.000022 -0.000059 0
-0.000021 -0.000065 0
-0.000019 -0.000070 0
-0.000017 -0.000074 0
-0.000015 -0.000078 0
-0.000013 -0.000082 0
-0.000010 -0.000084 0
-0.000007 -0.000086 0
-0.000004 -0.000088 0
0.000000 -0.000044 0
0.000000 0.000058 0
0.000023 0.000118 0
0.000020 0.000122 0
0.000016 0.000125 0
0.000013 0.000127 0
0.000009 0.000129 0
0.000005 0.000129 0
0.000001 0.000129 0
-0.000002 0.000127 0
-0.000005 0.000125 0
-0.000009 0.000123 0
-0.000011 0.000119 0
-0.000014 0.000115 0
-0.000016 0.000111 0
-0.000018 0.000106 0
-0.000020 0.000100 0
-0.000022 0.000095 0
-0.000023 0.000089 0
-0.000024 0.000083 0
-0.000024 0.000077 0
-0.000025 0.000070 0
-0.000025 0.000064 0
-0.000026 0.000058 0
-0.000026 0.000051 0
-0.000026 0.000045 0
-0.000027 0.000038 0
-0.000027 0.000032 0
-0.000027 0.000025 0
-0.000028 0.000019 0
-0.000028 0.000012 0
-0.000028 0.000005 0
-0.000029 -0.000002 0
-0.000029 -0.000010 0
-0.000030 -0.000017 0
-0.000030 -0.000024 0
-0.000031 -0.000032 0
-0.000031 -0.000039 0
-0.000031 -0.000047 0
-0.000031 -0.000055 0
-0.000030 -0.000062 0
-0.000029 -0.000069 0
-0.000028 -0.000076 0
-0.000026 -0.000083 0
-0.000025 -0.000089 0
-0.000022 -0.000095 0
-0.000019 -0.000100 0
-0.000016 -0.000104 0
-0.000013 -0.000108 0
-0.000009 -0.000110 0
-0.000004 -0.000112 0
0.000000 -0.000056 0
0.000000 0.000073 0
0.000028 0.000148 0
0.000024 0.000153 0
0.000019 0.000157 0
0.000015 0.000159 0
0.000010 0.000161 0
0.000005 0.000161 0
0.000000 0.000160 0
-0.000004 0.000158 0
-0.000008 0.000155 0
-0.000012 0.000151 0
-0.000016 0.000147 0
-0.000019 0.000141 0
-0.000022 0.000136 0
-0.000024 0.000129 0
-0.000026 0.000122 0
-0.000028 0.000115 0
-0.000029 0.000108 0
-0.000031 0.000100 0
-0.000031 0.000093 0
-0.000032 0.000085 0
-0.000033 0.000077 0
-0.000033 0.000069 0
-0.000033 0.000061 0
-0.000034 0.000053 0
-0.000034 0.000045 0
-0.000034 0.000037 0
-0.000035 0.000029 0
-0.000035 0.000020 0
-0.000036 0.000012 0
-0.000036 0.000003 0
-0.000037 -0.000005 0
-0.000038 -0.000014 0
-0.000038 -0.000023 0
-0.000039 -0.000033 0
-0.000039 -0.000042 0
-0.000039 -0.000052 0
-0.000039 -0.000061 0
-0.000039 -0.000071 0
-0.000038 -0.000080 0
-0.000037 -0.000089 0
-0.000036 -0.000098 0
-0.000034 -0.000106 0
-0.000031 -0.000114 0
-0.000028 -0.000121 0
-0.000025 -0.000127 0
-0.000020 -0.000132 0
-0.000016 -0.000136 0
-0.000011 -0.000140 0
-0.000006 -0.000141 0
0.000000 -0.000071 0
0.000000 0.000091 0
0.000034 0.000186 0
0.000028 0.000191 0
0.000023 0.000195 0
0.000016 0.000198 0
0.000010 0.000199 0
0.000004 0.000199 0
-0.000002 0.000197 0
-0.000007 0.000194 0
-0.000012 0.000190 0
-0.000017 0.000185 0
-0.000021 0.000179 0
-0.000025 0.000173 0
-0.000029 0.000165 0
-0.000032 0.000157 0
-0.000034 0.000149 0
-0.000036 0.000140 0
-0.000038 0.000130 0
-0.000039 0.000121 0
-0.000040 0.000111 0
-0.000041 0.000102 0
-0.000041 0.000092 0
-0.000042 0.000082 0
-0.000042 0.000072 0
-0.000043 0.000063 0
-0.000043 0.000053 0
-0.000043 0.000043 0
-0.000044 0.000033 0
-0.000045 0.000022 0
-0.000045 0.000012 0
-0.000046 0.000001 0
-0.000047 -0.000010 0
-0.000048 -0.000021 0
-0.000048 -0.000032 0
-0.000049 -0.000043 0
-0.000050 -0.000055 0
-0.000050 -0.000067 0
-0.000050 -0.000078 0
-0.000050 -0.000090 0
-0.000049 -0.000102 0
-0.000047 -0.000113 0
-0.000045 -0.000124 0
-0.000043 -0.000134 0
-0.000039 -0.000143 0
-0.000036 -0.000152 0
-0.000031 -0.000160 0
-0.000026 -0.000166 0
-0.000020 -0.000171 0
-0.000014 -0.000175 0
-0.000007 -0.000178 0
0.000000 -0.000089 0
0.000000 0.000114 0
0.000041 0.000231 0
0.000034 0.000237 0
0.000026 0.000242 0
0.000018 0.000244 0
0.000011 0.000245 0
0.000003 0.000244 0
-0.000004 0.000242 0
-0.000011 0.000238 0
-0.000018 0.000232 0
-0.000024 0.000226 0
-0.000029 0.000218 0
-0.000034 0.000209 0
-0.000038 0.000200 0
-0.000041 0.000190 0
-0.000044 0.000179 0
-0.000046 0.000168 0
-0.000048 0.000156 0
-0.000050 0.000145 0
-0.000051 0.000133 0
-0.000052 0.000121 0
-0.000052 0.000109 0
-0.000053 0.000097 0
-0.000053 0.000085 0
-0.000054 0.000073 0
-0.000054 0.000061 0
-0.000055 0.000049 0
-0.000055 0.000036 0
-0.000056 0.000024 0
-0.000057 0.000011 0
-0.000058 -0.000002 0
-0.000059 -0.000015 0
-0.000060 -0.000029 0
-0.000061 -0.000043 0
-0.000062 -0.000057 0
-0.000063 -0.000071 0
-0.000063 -0.000085 0
-0.000063 -0.000100 0
-0.000062 -0.000114 0
-0.000061 -0.000128 0
-0.000060 -0.000142 0
-0.000057 -0.000155 0
-0.000054 -0.000168 0
-0.000050 -0.000179 0
-0.000045 -0.000190 0
-0.000039 -0.000199 0
-0.000032 -0.000207 0
-0.000025 -0.000214 0
-0.000017 -0.000219 0
-0.000009 -0.000221 0
0.000000 -0.000111 0
0.000000 0.000141 0
0.000048 0.000285 0
0.000039 0.000292 0
0.000029 0.000297 0
0.000020 0.000299 0
0.000010 0.000300 0
0.000001 0.000298 0
-0.000008 0.000294 0
-0.000017 0.000289 0
-0.000025 0.000282 0
-0.000032 0.000273 0
-0.000038 0.000263 0
-0.000044 0.000252 0
-0.000049 0.000240 0
-0.000053 0.000227 0
-0.000056 0.000214 0
-0.000059 0.000200 0
-0.000061 0.000186 0
-0.000063 0.000172 0
-0.000064 0.000158 0
-0.000065 0.000143 0
-0.000065 0.000129 0
-0.000066 0.000114 0
-0.000066 0.000099 0
-0.000067 0.000085 0
-0.000068 0.000070 0
-0.000068 0.000055 0
-0.000069 0.000040 0
-0.000070 0.000025 0
-0.000071 0.000009 0
-0.000073 -0.000007 0
-0.000074 -0.000023 0
-0.000075 -0.000039 0
-0.000077 -0.000056 0
-0.000078 -0.000073 0
-0.000079 -0.000090 0
-0.000079 -0.000108 0
-0.000079 -0.000126 0
-0.000078 -0.000143 0
-0.000077 -0.000160 0
-0.000075 -0.000177 0
-0.000071 -0.000193 0
-0.000067 -0.000209 0
-0.000062 -0.000223 0
-0.000056 -0.000236 0
-0.000049 -0.000247 0
-0.000040 -0.000257 0
-0.000031 -0.000265 0
-0.000022 -0.000271 0
-0.000011 -0.000274 0
0.000000 -0.000138 0
0.000000 0.000173 0
0.000057 0.000350 0
0.000045 0.000357 0
0.000033 0.000362 0
0.000021 0.000365 0
0.000009 0.000364 0
-0.000003 0.000361 0
-0.000014 0.000356 0
-0.000024 0.000349 0
-0.000034 0.000339 0
-0.000042 0.000328 0
-0.000050 0.000316 0
-0.000057 0.000302 0
-0.000063 0.000287 0
-0.000067 0.000271 0
-0.000071 0.000255 0
-0.000074 0.000238 0
-0.000077 0.000221 0
-0.000079 0.000203 0
-0.000080 0.000186 0
-0.000081 0.000168 0
-0.000082 0.000150 0
-0.000082 0.000133 0
-0.000083 0.000115 0
-0.000083 0.000097 0
-0.000084 0.000080 0
-0.000085 0.000062 0
-0.000086 0.000044 0
-0.000087 0.000025 0
-0.000089 0.000006 0
-0.000090 -0.000013 0
-0.000092 -0.000032 0
-0.000094 -0.000052 0
-0.000095 -0.000072 0
-0.000097 -0.000093 0
-0.000098 -0.000114 0
-0.000098 -0.000135 0
-0.000098 -0.000157 0
-0.000098 -0.000178 0
-0.000096 -0.000199 0
-0.000093 -0.000219 0
-0.000089 -0.000239 0
-0.000084 -0.000258 0
-0.000077 -0.000275 0
-0.000069 -0.000291 0
-0.000060 -0.000305 0
-0.000050 -0.000316 0
-0.000039 -0.000326 0
-0.000027 -0.000333 0
-0.000014 -0.000337 0
0.000000 -0.000169 0
0.000000 0.000211 0
0.000066 0.000426 0
0.000052 0.000435 0
0.000037 0.000440 0
0.000022 0.000441 0
0.000007 0.000440 0
-0.000008 0.000436 0
-0.000021 0.000428 0
-0.000034 0.000419 0
-0.000045 0.000407 0
-0.000056 0.000393 0
-0.000065 0.000377 0
-0.000073 0.000359 0
-0.000080 0.000341 0
-0.000085 0.000322 0
-0.000090 0.000301 0
-0.000093 0.000281 0
-0.000096 0.000260 0
-0.000098 0.000239 0
-0.000099 0.000217 0
-0.000100 0.000196 0
-0.000101 0.000175 0
-0.000102 0.000154 0
-0.000102 0.000133 0
-0.000103 0.000111 0
-0.000103 0.000090 0
-0.000105 0.000069 0
-0.000106 0.000047 0
-0.000107 0.000025 0
-0.000109 0.000002 0
-0.000111 -0.000021 0
-0.000114 -0.000044 0
-0.000116 -0.000068 0
-0.000118 -0.000092 0
-0.000120 -0.000117 0
-0.000121 -0.000143 0
-0.000122 -0.000168 0
-0.000122 -0.000194 0
-0.000121 -0.000219 0
-0.000119 -0.000245 0
-0.000115 -0.000269 0
-0.000110 -0.000293 0
-0.000104 -0.000316 0
-0.000096 -0.000337 0
-0.000086 -0.000356 0
-0.000075 -0.000373 0
-0.000062 -0.000387 0
-0.000048 -0.000398 0
-0.000033 -0.000407 0
-0.000017 -0.000412 0
0.000000 -0.000207 0
0.000000 0.000256 0
0.000077 0.000516 0
0.000058 0.000525 0
0.000040 0.000530 0
0.000021 0.000531 0
0.000003 0.000528 0
-0.000015 0.000522 0
-0.000031 0.000512 0
-0.000046 0.000500 0
-0.000060 0.000484 0
-0.000073 0.000466 0
-0.000084 0.000447 0
-0.000093 0.000425 0
-0.000101 0.000403 0
-0.000107 0.000379 0
-0.000113 0.000354 0
-0.000116 0.000329 0
-0.000119 0.000304 0
-0.000121 0.000279 0
-0.000123 0.000253 0
-0.000124 0.000228 0
-0.000124 0.000202 0
-0.000125 0.000177 0
-0.000125 0.000152 0
-0.000126 0.000127 0