# vtk DataFile Version 2.0
generated by CFD-lab course output (written by Tobias Neckel) 
ASCII

DATASET STRUCTURED_GRID
DIMENSIONS  51 51 1 
POINTS 2601 float

0.000000 0.000000 0
0.020000 0.000000 0
0.040000 0.000000 0
0.060000 0.000000 0
0.080000 0.000000 0
0.100000 0.000000 0
0.120000 0.000000 0
0.140000 0.000000 0
0.160000 0.000000 0
0.180000 0.000000 0
0.200000 0.000000 0
0.220000 0.000000 0
0.240000 0.000000 0
0.260000 0.000000 0
0.280000 0.000000 0
0.300000 0.000000 0
0.320000 0.000000 0
0.340000 0.000000 0
0.360000 0.000000 0
0.380000 0.000000 0
0.400000 0.000000 0
0.420000 0.000000 0
0.440000 0.000000 0
0.460000 0.000000 0
0.480000 0.000000 0
0.500000 0.000000 0
0.520000 0.000000 0
0.540000 0.000000 0
0.560000 0.000000 0
0.580000 0.000000 0
0.600000 0.000000 0
0.620000 0.000000 0
0.640000 0.000000 0
0.660000 0.000000 0
0.680000 0.000000 0
0.700000 0.000000 0
0.720000 0.000000 0
0.740000 0.000000 0
0.760000 0.000000 0
0.780000 0.000000 0
0.800000 0.000000 0
0.820000 0.000000 0
0.840000 0.000000 0
0.860000 0.000000 0
0.880000 0.000000 0
0.900000 0.000000 0
0.920000 0.000000 0
0.940000 0.000000 0
0.960000 0.000000 0
0.980000 0.000000 0
1.000000 0.000000 0
0.000000 0.020000 0
0.020000 0.020000 0
0.040000 0.020000 0
0.060000 0.020000 0
0.080000 0.020000 0
0.100000 0.020000 0
0.120000 0.020000 0
0.140000 0.020000 0
0.160000 0.020000 0
0.180000 0.020000 0
0.200000 0.020000 0
0.220000 0.020000 0
0.240000 0.020000 0
0.260000 0.020000 0
0.280000 0.020000 0
0.300000 0.020000 0
0.320000 0.020000 0
0.340000 0.020000 0
0.360000 0.020000 0
0.380000 0.020000 0
0.400000 0.020000 0
0.420000 0.020000 0
0.440000 0.020000 0
0.460000 0.020000 0
0.480000 0.020000 0
0.500000 0.020000 0
0.520000 0.020000 0
0.540000 0.020000 0
0.560000 0.020000 0
0.580000 0.020000 0
0.600000 0.020000 0
0.620000 0.020000 0
0.640000 0.020000 0
0.660000 0.020000 0
0.680000 0.020000 0
0.700000 0.020000 0
0.720000 0.020000 0
0.740000 0.020000 0
0.760000 0.020000 0
0.780000 0.020000 0
0.800000 0.020000 0
0.820000 0.020000 0
0.840000 0.020000 0
0.860000 0.020000 0
0.880000 0.020000 0
0.900000 0.020000 0
0.920000 0.020000 0
0.940000 0.020000 0
0.960000 0.020000 0
0.980000 0.020000 0
1.000000 0.020000 0
0.000000 0.040000 0
0.020000 0.040000 0
0.040000 0.040000 0
0.060000 0.040000 0
0.080000 0.040000 0
0.100000 0.040000 0
0.120000 0.040000 0
0.140000 0.040000 0
0.160000 0.040000 0
0.180000 0.040000 0
0.200000 0.040000 0
0.220000 0.040000 0
0.240000 0.040000 0
0.260000 0.040000 0
0.280000 0.040000 0
0.300000 0.040000 0
0.320000 0.040000 0
0.340000 0.040000 0
0.360000 0.040000 0
0.380000 0.040000 0
0.400000 0.040000 0
0.420000 0.040000 0
0.440000 0.040000 0
0.460000 0.040000 0
0.480000 0.040000 0
0.500000 0.040000 0
0.520000 0.040000 0
0.540000 0.040000 0
0.560000 0.040000 0
0.580000 0.040000 0
0.600000 0.040000 0
0.620000 0.040000 0
0.640000 0.040000 0
0.660000 0.040000 0
0.680000 0.040000 0
0.700000 0.040000 0
0.720000 0.040000 0
0.740000 0.040000 0
0.760000 0.040000 0
0.780000 0.040000 0
0.800000 0.040000 0
0.820000 0.040000 0
0.840000 0.040000 0
0.860000 0.040000 0
0.880000 0.040000 0
0.900000 0.040000 0
0.920000 0.040000 0
0.940000 0.040000 0
0.960000 0.040000 0
0.980000 0.040000 0
1.000000 0.040000 0
0.000000 0.060000 0
0.020000 0.060000 0
0.040000 0.060000 0
0.060000 0.060000 0
0.080000 0.060000 0
0.100000 0.060000 0
0.120000 0.060000 0
0.140000 0.060000 0
0.160000 0.060000 0
0.180000 0.060000 0
0.200000 0.060000 0
0.220000 0.060000 0
0.240000 0.060000 0
0.260000 0.060000 0
0.280000 0.060000 0
0.300000 0.060000 0
0.320000 0.060000 0
0.340000 0.060000 0
0.360000 0.060000 0
0.380000 0.060000 0
0.400000 0.060000 0
0.420000 0.060000 0
0.440000 0.060000 0
0.460000 0.060000 0
0.480000 0.060000 0
0.500000 0.060000 0
0.520000 0.060000 0
0.540000 0.060000 0
0.560000 0.060000 0
0.580000 0.060000 0
0.600000 0.060000 0
0.620000 0.060000 0
0.640000 0.060000 0
0.660000 0.060000 0
0.680000 0.060000 0
0.700000 0.060000 0
0.720000 0.060000 0
0.740000 0.060000 0
0.760000 0.060000 0
0.780000 0.060000 0
0.800000 0.060000 0
0.820000 0.060000 0
0.840000 0.060000 0
0.860000 0.060000 0
0.880000 0.060000 0
0.900000 0.060000 0
0.920000 0.060000 0
0.940000 0.060000 0
0.960000 0.060000 0
0.980000 0.060000 0
1.000000 0.060000 0
0.000000 0.080000 0
0.020000 0.080000 0
0.040000 0.080000 0
0.060000 0.080000 0
0.080000 0.080000 0
0.100000 0.080000 0
0.120000 0.080000 0
0.140000 0.080000 0
0.160000 0.080000 0
0.180000 0.080000 0
0.200000 0.080000 0
0.220000 0.080000 0
0.240000 0.080000 0
0.260000 0.080000 0
0.280000 0.080000 0
0.300000 0.080000 0
0.320000 0.080000 0
0.340000 0.080000 0
0.360000 0.080000 0
0.380000 0.080000 0
0.400000 0.080000 0
0.420000 0.080000 0
0.440000 0.080000 0
0.460000 0.080000 0
0.480000 0.080000 0
0.500000 0.080000 0
0.520000 0.080000 0
0.540000 0.080000 0
0.560000 0.080000 0
0.580000 0.080000 0
0.600000 0.080000 0
0.620000 0.080000 0
0.640000 0.080000 0
0.660000 0.080000 0
0.680000 0.080000 0
0.700000 0.080000 0
0.720000 0.080000 0
0.740000 0.080000 0
0.760000 0.080000 0
0.780000 0.080000 0
0.800000 0.080000 0
0.820000 0.080000 0
0.840000 0.080000 0
0.860000 0.080000 0
0.880000 0.080000 0
0.900000 0.080000 0
0.920000 0.080000 0
0.940000 0.080000 0
0.960000 0.080000 0
0.980000 0.080000 0
1.000000 0.080000 0
0.000000 0.100000 0
0.020000 0.100000 0
0.040000 0.100000 0
0.060000 0.100000 0
0.080000 0.100000 0
0.100000 0.100000 0
0.120000 0.100000 0
0.140000 0.100000 0
0.160000 0.100000 0
0.180000 0.100000 0
0.200000 0.100000 0
0.220000 0.100000 0
0.240000 0.100000 0
0.260000 0.100000 0
0.280000 0.100000 0
0.300000 0.100000 0
0.320000 0.100000 0
0.340000 0.100000 0
0.360000 0.100000 0
0.380000 0.100000 0
0.400000 0.100000 0
0.420000 0.100000 0
0.440000 0.100000 0
0.460000 0.100000 0
0.480000 0.100000 0
0.500000 0.100000 0
0.520000 0.100000 0
0.540000 0.100000 0
0.560000 0.100000 0
0.580000 0.100000 0
0.600000 0.100000 0
0.620000 0.100000 0
0.640000 0.100000 0
0.660000 0.100000 0
0.680000 0.100000 0
0.700000 0.100000 0
0.720000 0.100000 0
0.740000 0.100000 0
0.760000 0.100000 0
0.780000 0.100000 0
0.800000 0.100000 0
0.820000 0.100000 0
0.840000 0.100000 0
0.860000 0.100000 0
0.880000 0.100000 0
0.900000 0.100000 0
0.920000 0.100000 0
0.940000 0.100000 0
0.960000 0.100000 0
0.980000 0.100000 0
1.000000 0.100000 0
0.000000 0.120000 0
0.020000 0.120000 0
0.040000 0.120000 0
0.060000 0.120000 0
0.080000 0.120000 0
0.100000 0.120000 0
0.120000 0.120000 0
0.140000 0.120000 0
0.160000 0.120000 0
0.180000 0.120000 0
0.200000 0.120000 0
0.220000 0.120000 0
0.240000 0.120000 0
0.260000 0.120000 0
0.280000 0.120000 0
0.300000 0.120000 0
0.320000 0.120000 0
0.340000 0.120000 0
0.360000 0.120000 0
0.380000 0.120000 0
0.400000 0.120000 0
0.420000 0.120000 0
0.440000 0.120000 0
0.460000 0.120000 0
0.480000 0.120000 0
0.500000 0.120000 0
0.520000 0.120000 0
0.540000 0.120000 0
0.560000 0.120000 0
0.580000 0.120000 0
0.600000 0.120000 0
0.620000 0.120000 0
0.640000 0.120000 0
0.660000 0.120000 0
0.680000 0.120000 0
0.700000 0.120000 0
0.720000 0.120000 0
0.740000 0.120000 0
0.760000 0.120000 0
0.780000 0.120000 0
0.800000 0.120000 0
0.820000 0.120000 0
0.840000 0.120000 0
0.860000 0.120000 0
0.880000 0.120000 0
0.900000 0.120000 0
0.920000 0.120000 0
0.940000 0.120000 0
0.960000 0.120000 0
0.980000 0.120000 0
1.000000 0.120000 0
0.000000 0.140000 0
0.020000 0.140000 0
0.040000 0.140000 0
0.060000 0.140000 0
0.080000 0.140000 0
0.100000 0.140000 0
0.120000 0.140000 0
0.140000 0.140000 0
0.160000 0.140000 0
0.180000 0.140000 0
0.200000 0.140000 0
0.220000 0.140000 0
0.240000 0.140000 0
0.260000 0.140000 0
0.280000 0.140000 0
0.300000 0.140000 0
0.320000 0.140000 0
0.340000 0.140000 0
0.360000 0.140000 0
0.380000 0.140000 0
0.400000 0.140000 0
0.420000 0.140000 0
0.440000 0.140000 0
0.460000 0.140000 0
0.480000 0.140000 0
0.500000 0.140000 0
0.520000 0.140000 0
0.540000 0.140000 0
0.560000 0.140000 0
0.580000 0.140000 0
0.600000 0.140000 0
0.620000 0.140000 0
0.640000 0.140000 0
0.660000 0.140000 0
0.680000 0.140000 0
0.700000 0.140000 0
0.720000 0.140000 0
0.740000 0.140000 0
0.760000 0.140000 0
0.780000 0.140000 0
0.800000 0.140000 0
0.820000 0.140000 0
0.840000 0.140000 0
0.860000 0.140000 0
0.880000 0.140000 0
0.900000 0.140000 0
0.920000 0.140000 0
0.940000 0.140000 0
0.960000 0.140000 0
0.980000 0.140000 0
1.000000 0.140000 0
0.000000 0.160000 0
0.020000 0.160000 0
0.040000 0.160000 0
0.060000 0.160000 0
0.080000 0.160000 0
0.100000 0.160000 0
0.120000 0.160000 0
0.140000 0.160000 0
0.160000 0.160000 0
0.180000 0.160000 0
0.200000 0.160000 0
0.220000 0.160000 0
0.240000 0.160000 0
0.260000 0.160000 0
0.280000 0.160000 0
0.300000 0.160000 0
0.320000 0.160000 0
0.340000 0.160000 0
0.360000 0.160000 0
0.380000 0.160000 0
0.400000 0.160000 0
0.420000 0.160000 0
0.440000 0.160000 0
0.460000 0.160000 0
0.480000 0.160000 0
0.500000 0.160000 0
0.520000 0.160000 0
0.540000 0.160000 0
0.560000 0.160000 0
0.580000 0.160000 0
0.600000 0.160000 0
0.620000 0.160000 0
0.640000 0.160000 0
0.660000 0.160000 0
0.680000 0.160000 0
0.700000 0.160000 0
0.720000 0.160000 0
0.740000 0.160000 0
0.760000 0.160000 0
0.780000 0.160000 0
0.800000 0.160000 0
0.820000 0.160000 0
0.840000 0.160000 0
0.860000 0.160000 0
0.880000 0.160000 0
0.900000 0.160000 0
0.920000 0.160000 0
0.940000 0.160000 0
0.960000 0.160000 0
0.980000 0.160000 0
1.000000 0.160000 0
0.000000 0.180000 0
0.020000 0.180000 0
0.040000 0.180000 0
0.060000 0.180000 0
0.080000 0.180000 0
0.100000 0.180000 0
0.120000 0.180000 0
0.140000 0.180000 0
0.160000 0.180000 0
0.180000 0.180000 0
0.200000 0.180000 0
0.220000 0.180000 0
0.240000 0.180000 0
0.260000 0.180000 0
0.280000 0.180000 0
0.300000 0.180000 0
0.320000 0.180000 0
0.340000 0.180000 0
0.360000 0.180000 0
0.380000 0.180000 0
0.400000 0.180000 0
0.420000 0.180000 0
0.440000 0.180000 0
0.460000 0.180000 0
0.480000 0.180000 0
0.500000 0.180000 0
0.520000 0.180000 0
0.540000 0.180000 0
0.560000 0.180000 0
0.580000 0.180000 0
0.600000 0.180000 0
0.620000 0.180000 0
[...]
POINT_DATA 2601 

VECTORS velocity float
0.000000 0.000000 0
0.000000 0.000000 0
0.000000 0.000000 0
0.000000 0.000000 0
0.000000 0.000000 0
0.000000 0.000000 0
0.000000 0.000000 0
0.000000 0.000000 0
0.000000 0.000000 0
0.000000 0.000000 0
0.000000 0.000000 0
0.000000 0.000000 0
0.000000 0.000000 0
0.000000 0.000000 0
0.000000 0.000000 0
0.000000 0.000000 0
0.000000 0.000000 0
0.000000 0.000000 0
0.000000 0.000000 0
0.000000 0.000000 0
0.000000 0.000000 0
0.000000 0.000000 0
0.000000 0.000000 0
0.000000 0.000000 0
0.000000 0.000000 0
0.000000 0.000000 0
0.000000 0.000000 0
0.000000 0.000000 0
0.000000 0.000000 0
0.000000 0.000000 0
0.000000 0.000000 0
0.000000 0.000000 0
0.000000 0.000000 0
0.000000 0.000000 0
-0.000000 0.000000 0
-0.000000 0.000000 0
-0.000000 0.000000 0
-0.000000 0.000000 0
-0.000000 0.000000 0
-0.000000 0.000000 0
-0.000000 0.000000 0
-0.000000 0.000000 0
-0.000000 0.000000 0
-0.000000 0.000000 0
-0.000000 0.000000 0
-0.000000 0.000000 0
-0.000000 0.000000 0
-0.000000 0.000000 0
-0.000000 0.000000 0
-0.000000 0.000000 0
0.000000 0.000000 0
0.000000 0.000000 0
-0.028502 -0.024872 0
-0.053881 -0.047643 0
-0.073719 -0.066714 0
-0.087997 -0.081977 0
-0.098216 -0.094490 0
-0.105991 -0.105506 0
-0.112449 -0.115939 0
-0.118216 -0.126301 0
-0.123586 -0.136816 0
-0.128661 -0.147532 0
-0.133454 -0.158403 0
-0.137929 -0.169333 0
-0.142035 -0.180198 0
-0.145713 -0.190855 0
-0.148898 -0.201149 0
-0.151527 -0.210916 0
-0.153541 -0.219983 0
-0.154879 -0.228173 0
-0.155489 -0.235308 0
-0.155323 -0.241212 0
-0.154342 -0.245716 0
-0.152515 -0.248662 0
-0.149824 -0.249910 0
-0.146263 -0.249347 0
-0.141844 -0.246887 0
-0.136593 -0.242485 0
-0.130556 -0.236138 0
-0.123799 -0.227897 0
-0.116407 -0.217866 0
-0.108487 -0.206210 0
-0.100163 -0.193148 0
-0.091573 -0.178954 0
-0.082867 -0.163943 0
-0.074197 -0.148456 0
-0.065715 -0.132845 0
-0.057558 -0.117450 0
-0.049849 -0.102581 0
-0.042682 -0.088497 0
-0.036125 -0.075400 0
-0.030217 -0.063423 0
-0.024965 -0.052633 0
-0.020355 -0.043039 0
-0.016348 -0.034598 0
-0.012895 -0.027230 0
-0.009933 -0.020823 0
-0.007394 -0.015248 0
-0.005208 -0.010358 0
-0.003302 -0.005992 0
-0.001595 -0.001961 0
0.000000 0.000000 0
0.000000 0.000000 0
-0.053382 -0.046051 0
-0.098214 -0.085836 0
-0.130642 -0.116659 0
-0.152241 -0.139604 0
-0.166706 -0.157485 0
-0.177157 -0.172772 0
-0.185502 -0.186987 0
-0.192713 -0.200879 0
-0.199223 -0.214735 0
-0.205189 -0.228603 0
-0.210642 -0.242416 0
-0.215562 -0.256060 0
-0.219908 -0.269402 0
-0.223628 -0.282296 0
-0.226674 -0.294593 0
-0.228994 -0.306140 0
-0.230542 -0.316784 0
-0.231272 -0.326366 0
-0.231141 -0.334729 0
-0.230112 -0.341716 0
-0.228152 -0.347172 0
-0.225232 -0.350945 0
-0.221334 -0.352893 0
-0.216445 -0.352882 0
-0.210564 -0.350796 0
-0.203703 -0.346539 0
-0.195888 -0.340044 0
-0.187160 -0.331279 0
-0.177584 -0.320259 0
-0.167241 -0.307050 0
-0.156239 -0.291783 0
-0.144709 -0.274654 0
-0.132804 -0.255930 0
-0.120696 -0.235942 0
-0.108569 -0.215076 0
-0.096614 -0.193755 0
-0.085017 -0.172418 0
-0.073946 -0.151489 0
-0.063547 -0.131350 0
-0.053928 -0.112323 0
-0.045162 -0.094648 0
-0.037282 -0.078476 0
-0.030281 -0.063871 0
-0.024123 -0.050815 0
-0.018742 -0.039220 0
-0.014055 -0.028939 0
-0.009960 -0.019777 0
-0.006343 -0.011488 0
-0.003075 -0.003768 0
0.000000 0.000000 0
0.000000 0.000000 0
-0.071703 -0.060428 0
-0.128222 -0.109610 0
-0.165833 -0.144810 0
-0.188908 -0.169255 0
-0.203324 -0.187501 0
-0.213212 -0.202813 0
-0.220825 -0.216952 0
-0.227231 -0.230703 0
-0.232887 -0.244346 0
-0.237967 -0.257927 0
-0.242518 -0.271391 0
-0.246540 -0.284646 0
-0.250008 -0.297585 0
-0.252892 -0.310094 0
-0.255156 -0.322054 0
-0.256763 -0.333343 0
-0.257672 -0.343832 0
-0.257846 -0.353389 0
-0.257246 -0.361877 0
-0.255835 -0.369155 0
-0.253578 -0.375082 0
-0.250443 -0.379512 0
-0.246406 -0.382306 0
-0.241446 -0.383325 0
-0.235551 -0.382443 0
-0.228721 -0.379543 0
-0.220964 -0.374528 0
-0.212302 -0.367325 0
-0.202775 -0.357892 0
-0.192435 -0.346225 0
-0.181358 -0.332371 0
-0.169639 -0.316428 0
-0.157395 -0.298562 0
-0.144764 -0.279000 0
-0.131904 -0.258039 0
-0.118988 -0.236032 0
-0.106200 -0.213381 0
-0.093720 -0.190514 0
-0.081721 -0.167858 0
-0.070354 -0.145818 0
-0.059744 -0.124745 0
-0.049974 -0.104917 0
-0.041092 -0.086523 0
-0.033104 -0.069660 0
-0.025978 -0.054330 0
-0.019650 -0.040446 0
-0.014026 -0.027839 0
-0.008983 -0.016255 0
-0.004371 -0.005347 0
0.000000 0.000000 0
0.000000 0.000000 0
-0.083070 -0.067878 0
-0.145252 -0.120613 0
-0.183993 -0.156156 0
-0.206328 -0.179682 0
-0.219608 -0.196842 0
-0.228427 -0.211210 0
-0.235104 -0.224555 0
-0.240688 -0.237619 0
-0.245612 -0.250653 0
-0.250042 -0.263694 0
-0.254026 -0.276697 0
-0.257564 -0.289579 0
-0.260633 -0.302247 0
-0.263202 -0.314596 0
-0.265235 -0.326519 0
-0.266689 -0.337898 0
-0.267521 -0.348610 0
-0.267685 -0.358522 0
-0.267138 -0.367498 0
-0.265834 -0.375395 0
-0.263731 -0.382065 0
-0.260792 -0.387359 0
-0.256984 -0.391131 0
-0.252280 -0.393235 0
-0.246664 -0.393536 0
-0.240127 -0.391908 0
-0.232672 -0.388240 0
-0.224317 -0.382444 0
-0.215091 -0.374458 0
-0.205041 -0.364255 0
-0.194230 -0.351844 0
-0.182737 -0.337286 0
-0.170662 -0.320692 0
-0.158124 -0.302231 0
-0.145256 -0.282131 0
-0.132209 -0.260680 0
-0.119145 -0.238216 0
-0.106231 -0.215118 0
-0.093633 -0.191785 0
-0.081507 -0.168618 0
-0.069990 -0.145995 0
-0.059192 -0.124243 0
-0.049191 -0.103624 0
-0.040028 -0.084313 0
-0.031702 -0.066391 0
-0.024177 -0.049840 0
-0.017378 -0.034542 0
-0.011191 -0.020273 0
-0.005466 -0.006688 0
0.000000 0.000000 0
0.000000 0.000000 0
-0.089114 -0.070199 0
-0.153573 -0.123148 0
-0.192096 -0.157560 0
-0.213515 -0.179785 0
-0.225941 -0.195917 0
-0.234108 -0.209543 0
-0.240306 -0.222353 0
-0.245533 -0.235027 0
-0.250198 -0.247786 0
-0.254450 -0.260655 0
-0.258328 -0.273587 0
-0.261826 -0.286501 0
-0.264918 -0.299304 0
-0.267568 -0.311895 0
-0.269732 -0.324164 0
-0.271364 -0.335993 0
-0.272414 -0.347254 0
-0.272831 -0.357813 0
-0.272564 -0.367527 0
-0.271562 -0.376247 0
-0.269778 -0.383819 0
-0.267168 -0.390087 0
-0.263692 -0.394896 0
-0.259320 -0.398091 0
-0.254028 -0.399528 0
-0.247804 -0.399068 0
-0.240647 -0.396591 0
-0.232568 -0.391995 0
-0.223594 -0.385205 0
-0.213767 -0.376174 0
-0.203147 -0.364896 0
-0.191809 -0.351409 0
-0.179848 -0.335798 0
-0.167374 -0.318204 0
-0.154514 -0.298824 0
-0.141407 -0.277907 0
-0.128206 -0.255754 0
-0.115065 -0.232709 0
-0.102142 -0.209141 0
-0.089586 -0.185429 0
-0.077534 -0.161945 0
-0.066101 -0.139027 0
-0.055375 -0.116960 0
-0.045413 -0.095958 0
-0.036234 -0.076151 0
-0.027821 -0.057568 0
-0.020115 -0.040136 0
-0.013016 -0.023664 0
-0.006379 -0.007829 0
0.000000 0.000000 0
0.000000 0.000000 0
-0.091835 -0.069350 0
-0.157002 -0.120849 0
-0.195118 -0.153750 0
-0.215974 -0.174854 0
-0.227995 -0.190276 0
-0.235926 -0.203482 0
-0.242009 -0.216058 0
-0.247207 -0.228628 0
-0.251905 -0.241385 0
-0.256241 -0.254345 0
-0.260249 -0.267455 0
-0.263917 -0.280633 0
-0.267216 -0.293786 0
-0.270105 -0.306812 0
-0.272539 -0.319600 0
-0.274466 -0.332029 0
-0.275835 -0.343971 0
-0.276590 -0.355287 0
-0.276676 -0.365831 0
-0.276038 -0.375450 0
-0.274625 -0.383983 0
-0.272387 -0.391269 0
-0.269280 -0.397143 0
-0.265267 -0.401444 0
-0.260319 -0.404014 0
-0.254418 -0.404705 0
-0.247557 -0.403383 0
-0.239742 -0.399930 0
-0.230994 -0.394254 0
-0.221353 -0.386292 0
-0.210871 -0.376018 0
-0.199623 -0.363449 0
-0.187701 -0.348651 0
-0.175211 -0.331743 0
-0.162280 -0.312902 0
-0.149046 -0.292356 0
-0.135658 -0.270390 0
-0.122270 -0.247326 0
-0.109036 -0.223522 0
-0.096105 -0.199347 0
-0.083610 -0.175166 0
-0.071671 -0.151320 0
-0.060377 -0.128107 0
-0.049792 -0.105758 0
-0.039944 -0.084427 0
-0.030825 -0.064175 0
-0.022388 -0.044956 0
-0.014540 -0.026607 0
-0.007144 -0.008826 0
0.000000 0.000000 0
0.000000 0.000000 0
-0.092730 -0.066709 0
-0.157954 -0.115951 0
-0.195778 -0.147276 0
-0.216396 -0.167459 0
-0.228318 -0.182406 0
-0.236259 -0.195401 0
-0.242422 -0.207924 0
-0.247749 -0.220549 0
-0.252611 -0.233447 0
-0.257140 -0.246623 0
-0.261367 -0.260021 0
-0.265278 -0.273560 0
-0.268842 -0.287145 0
-0.272017 -0.300675 0
-0.274758 -0.314038 0
-0.277013 -0.327115 0
-0.278726 -0.339775 0
-0.279842 -0.351880 0
-0.280303 -0.363280 0
-0.280050 -0.373820 0
-0.279028 -0.383334 0
-0.277182 -0.391656 0
-0.274464 -0.398615 0
-0.270830 -0.404039 0
-0.266245 -0.407761 0
-0.260684 -0.409621 0
-0.254134 -0.409470 0
-0.246594 -0.407174 0
-0.238079 -0.402623 0
-0.228622 -0.395734 0
-0.218271 -0.386460 0
-0.207095 -0.374794 0
-0.195182 -0.360779 0
-0.182640 -0.344513 0
-0.169591 -0.326150 0
-0.156176 -0.305904 0
-0.142546 -0.284044 0
-0.128857 -0.260885 0
-0.115269 -0.236780 0
-0.101933 -0.212100 0
-0.088989 -0.187214 0
-0.076557 -0.162474 0
-0.064735 -0.138189 0
-0.053587 -0.114607 0
-0.043148 -0.091900 0
-0.033415 -0.070148 0
-0.024345 -0.049325 0
-0.015853 -0.029283 0
-0.007803 -0.009736 0
0.000000 0.000000 0
0.000000 0.000000 0
-0.092703 -0.063072 0
-0.157729 -0.109633 0
-0.195391 -0.139365 0
-0.215974 -0.158746 0
-0.227964 -0.173345 0
-0.236035 -0.186237 0
-0.242367 -0.198798 0
-0.247886 -0.211553 0
-0.252959 -0.224652 0
-0.257715 -0.238095 0
-0.262184 -0.251821 0
-0.266354 -0.265751 0
-0.270193 -0.279790 0
-0.273662 -0.293840 0
-0.276715 -0.307789 0
-0.279299 -0.321520 0
-0.281361 -0.334903 0
-0.282842 -0.347799 0
-0.283683 -0.360058 0
-0.283823 -0.371522 0
-0.283202 -0.382024 0
-0.281762 -0.391391 0
-0.279447 -0.399446 0
-0.276210 -0.406011 0
-0.272008 -0.410908 0
-0.266809 -0.413965 0
-0.260591 -0.415018 0
-0.253348 -0.413919 0
-0.245087 -0.410537 0
-0.235832 -0.404768 0
-0.225625 -0.396541 0
-0.214531 -0.385826 0
-0.202631 -0.372639 0
-0.190029 -0.357052 0
-0.176849 -0.339195 0
-0.163231 -0.319263 0
-0.149327 -0.297508 0
-0.135302 -0.274238 0
-0.121319 -0.249805 0
-0.107539 -0.224584 0
-0.094110 -0.198959 0
-0.081162 -0.173297 0
-0.068799 -0.147927 0
-0.057092 -0.123120 0
-0.046082 -0.099067 0
-0.035768 -0.075865 0
-0.026114 -0.053504 0
-0.017034 -0.031848 0
-0.008395 -0.010612 0
0.000000 0.000000 0
0.000000 0.000000 0
-0.092238 -0.058854 0
-0.156972 -0.102472 0
-0.194558 -0.130579 0
-0.215216 -0.149203 0
-0.227355 -0.163513 0
-0.235611 -0.176352 0
-0.242144 -0.188991 0
-0.247876 -0.201906 0
-0.253171 -0.215230 0
-0.258159 -0.228954 0
-0.262870 -0.243019 0
-0.267294 -0.257344 0
-0.271403 -0.271837 0
-0.275158 -0.286402 0
-0.278514 -0.300931 0
-0.281422 -0.315308 0
-0.283827 -0.329405 0
-0.285671 -0.343083 0
-0.286893 -0.356195 0
-0.287429 -0.368580 0
-0.287216 -0.380068 0
-0.286191 -0.390485 0
-0.284295 -0.399646 0
-0.281471 -0.407367 0
-0.277672 -0.413460 0
-0.272857 -0.417742 0
-0.266997 -0.420037 0
-0.260076 -0.420178 0
-0.252094 -0.418017 0
-0.243066 -0.413429 0
-0.233029 -0.406318 0
-0.222037 -0.396627 0
-0.210168 -0.384344 0
-0.197520 -0.369513 0
-0.184215 -0.352237 0
-0.170391 -0.332684 0
-0.156205 -0.311089 0
-0.141824 -0.287746 0
-0.127421 -0.263003 0
-0.113167 -0.237243 0
-0.099220 -0.210862 0
-0.085722 -0.184251 0
-0.072788 -0.157764 0
-0.060501 -0.131698 0
-0.048908 -0.106271 0
-0.038016 -0.081602 0
-0.027789 -0.057696 0
-0.018144 -0.034423 0
-0.008948 -0.011494 0
0.000000 0.000000 0
0.000000 0.000000 0
-0.091579 -0.054253 0
-0.155990 -0.094733 0
-0.193550 -0.121162 0
-0.214336 -0.139034 0
-0.226662 -0.153074 0
-0.235124 -0.165882 0
-0.241871 -0.178614 0
-0.247818 -0.191702 0
-0.253333 -0.205257 0
-0.258545 -0.219265 0
-0.263489 -0.233666 0
-0.268157 -0.248379 0
-0.272523 -0.263318 0
-0.276551 -0.278387 0
-0.280200 -0.293482 0
-0.283421 -0.308491 0
-0.286160 -0.323288 0
-0.288361 -0.337737 0
-0.289960 -0.351689 0
-0.290892 -0.364986 0
-0.291091 -0.377457 0
-0.290490 -0.388922 0
-0.289023 -0.399195 0
-0.286629 -0.408083 0
-0.283252 -0.415392 0
-0.278844 -0.420927 0
-0.273367 -0.424498 0
-0.266796 -0.425924 0
-0.259122 -0.425038 0
-0.250352 -0.421694 0
-0.240512 -0.415771 0
-0.229651 -0.407186 0
-0.217838 -0.395897 0
-0.205167 -0.381916 0
-0.191753 -0.365317 0
-0.177735 -0.346238 0
-0.163271 -0.324890 0
-0.148531 -0.301549 0
-0.133695 -0.276553 0
-0.118945 -0.250289 0
-0.104453 -0.223165 0
-0.090374 -0.195594 0
-0.076837 -0.167960 0
-0.063939 -0.140593 0
-0.051738 -0.113741 0
-0.040249 -0.087550 0
-0.029441 -0.062044 0
-0.019232 -0.037098 0
-0.009488 -0.012414 0
0.000000 0.000000 0
0.000000 0.000000 0
-0.090845 -0.049356 0
-0.154928 -0.086531 0
-0.192491 -0.111214 0
-0.213430 -0.128317 0
-0.225960 -0.142088 0
-0.234638 -0.154872 0
-0.241598 -0.167705 0
-0.247758 -0.180969 0
-0.253485 -0.194756 0
-0.258912 -0.209046 0
-0.264075 -0.223776 0
-0.268972 -0.238870 0
-0.273580 -0.254242 0
-0.277867 -0.269800 0
-0.281793 -0.285447 0
-0.285314 -0.301070 0
-0.288376 -0.316550 0
-0.290923 -0.331753 0
-0.292893 -0.346532 0
-0.294219 -0.360729 0
-0.294831 -0.374174 0
-0.294660 -0.386684 0
-0.293633 -0.398070 0
-0.291683 -0.408134 0
-0.288747 -0.416673 0
-0.284768 -0.423484 0
-0.279700 -0.428364 0
-0.273508 -0.431117 0
-0.266173 -0.431558 0
-0.257692 -0.429519 0
-0.248083 -0.424858 0
-0.237384 -0.417461 0
-0.225658 -0.407259 0
-0.212990 -0.394230 0
-0.199491 -0.378415 0
-0.185298 -0.359920 0
-0.170567 -0.338925 0
-0.155473 -0.315683 0
-0.140201 -0.290519 0
-0.124944 -0.263813 0
-0.109886 -0.235984 0
-0.095199 -0.207465 0
-0.081028 -0.178668 0
-0.067486 -0.149960 0
-0.054645 -0.121625 0
-0.042530 -0.093842 0
-0.031118 -0.066653 0
-0.020331 -0.039942 0
-0.010030 -0.013397 0
0.000000 0.000000 0
0.000000 0.000000 0
-0.090095 -0.044198 0
-0.153858 -0.077907 0
-0.191441 -0.100767 0
-0.212549 -0.117073 0
-0.225291 -0.130571 0
-0.234186 -0.143333 0
-0.241359 -0.156271 0
-0.247726 -0.169714 0
-0.253656 -0.183733 0
-0.259285 -0.198300 0
-0.264655 -0.213354 0
-0.269765 -0.228818 0
-0.274597 -0.244610 0
-0.279124 -0.260644 0
-0.283311 -0.276824 0
-0.287113 -0.293044 0
-0.290483 -0.309188 0
-0.293365 -0.325126 0
-0.295696 -0.340714 0
-0.297409 -0.355796 0
-0.298433 -0.370202 0
-0.298694 -0.383750 0
-0.298114 -0.396247 0
-0.296621 -0.407490 0
-0.294144 -0.417271 0
-0.290617 -0.425377 0
-0.285984 -0.431594 0
-0.280201 -0.435712 0
-0.273238 -0.437529 0
-0.265081 -0.436856 0
-0.255737 -0.433527 0
-0.245236 -0.427402 0
-0.233629 -0.418379 0
-0.220996 -0.406407 0
-0.207441 -0.391487 0
-0.193096 -0.373692 0
-0.178117 -0.353168 0
-0.162678 -0.330140 0
-0.146974 -0.304909 0
-0.131203 -0.277846 0
-0.115565 -0.249372 0
-0.100247 -0.219935 0
-0.085413 -0.189977 0
-0.071193 -0.159898 0
-0.057676 -0.130024 0
-0.044902 -0.100567 0
-0.032856 -0.071597 0
-0.021465 -0.043005 0
-0.010589 -0.014460 0
0.000000 0.000000 0
0.000000 0.000000 0
-0.089362 -0.038785 0
-0.152823 -0.068866 0
-0.190437 -0.089823 0
-0.211723 -0.105301 0
-0.224682 -0.118519 0
-0.233795 -0.131261 0
-0.241179 -0.144309 0
-0.247747 -0.157933 0
-0.253871 -0.172185 0
-0.259690 -0.187029 0
-0.265250 -0.202400 0
-0.270556 -0.218226 0
-0.275593 -0.234427 0
-0.280341 -0.250921 0
-0.284766 -0.267616 0
-0.288831 -0.284414 0
-0.292490 -0.301201 0
-0.295689 -0.317853 0
-0.298368 -0.334229 0
-0.300459 -0.350177 0
-0.301889 -0.365528 0
-0.302581 -0.380101 0
-0.302454 -0.393701 0
-0.301429 -0.406122 0
-0.299426 -0.417152 0
-0.296372 -0.426567 0
-0.292201 -0.434146 0
-0.286857 -0.439664 0
-0.280300 -0.442901 0
-0.272503 -0.443652 0
-0.263463 -0.441723 0
-0.253198 -0.436950 0
-0.241748 -0.429201 0
-0.229185 -0.418387 0
-0.215606 -0.404477 0
-0.201137 -0.387504 0
-0.185930 -0.367576 0
-0.170163 -0.344883 0
-0.154033 -0.319701 0
-0.137748 -0.292381 0
-0.121520 -0.263341 0
-0.105552 -0.233037 0
-0.090027 -0.201934 0
-0.075095 -0.170468 0
-0.060866 -0.139003 0
-0.047395 -0.107792 0
-0.034679 -0.076932 0
-0.022652 -0.046326 0
-0.011172 -0.015619 0
0.000000 0.000000 0
0.000000 0.000000 0
-0.088667 -0.033108 0
-0.151850 -0.059396 0
-0.189510 -0.078367 0
-0.210979 -0.092985 0
-0.224160 -0.105916 0
-0.233494 -0.118643 0
-0.241086 -0.131808 0
-0.247849 -0.145621 0
-0.254157 -0.160110 0
-0.260153 -0.175230 0
-0.265887 -0.190916 0
-0.271368 -0.207095 0
-0.276589 -0.223694 0
-0.281533 -0.240633 0
-0.286173 -0.257827 0
-0.290477 -0.275181 0
-0.294402 -0.292589 0
-0.297898 -0.309930 0
-0.300906 -0.327071 0
-0.303361 -0.343862 0
-0.305189 -0.360138 0
-0.306308 -0.375719 0
-0.306636 -0.390410 0
-0.306086 -0.404004 0
-0.304572 -0.416282 0
-0.302011 -0.427018 0
-0.298328 -0.435977 0
-0.293455 -0.442924 0
-0.287338 -0.447624 0
-0.279941 -0.449850 0
-0.271246 -0.449388 0
-0.261257 -0.446046 0
-0.250006 -0.439660 0
-0.237552 -0.430109 0
-0.223984 -0.417322 0
-0.209422 -0.401294 0
-0.194014 -0.382090 0
-0.177938 -0.359865 0
-0.161393 -0.334857 0
-0.144596 -0.307395 0
-0.127770 -0.277881 0
-0.111136 -0.246776 0
-0.094895 -0.214561 0
-0.079220 -0.181704 0
-0.064241 -0.148607 0
-0.050032 -0.115563 0
-0.036606 -0.082701 0
-0.023905 -0.049935 0
-0.011786 -0.016886 0
0.000000 0.000000 0
0.000000 0.000000 0
-0.088026 -0.027152 0
-0.150965 -0.049473 0
-0.188684 -0.066373 0
-0.210346 -0.080102 0
-0.223753 -0.092744 0
-0.233309 -0.105465 0
-0.241109 -0.118757 0
-0.248062 -0.132769 0
-0.254544 -0.147502 0
-0.260703 -0.162902 0
-0.266591 -0.178901 0
-0.272227 -0.195430 0
-0.277607 -0.212417 0
-0.282720 -0.229787 0
-0.287548 -0.247462 0
-0.292062 -0.265351 0
-0.296226 -0.283355 0
-0.299994 -0.301361 0
-0.303311 -0.319239 0
-0.306111 -0.336847 0
-0.308322 -0.354022 0
-0.309861 -0.370588 0
-0.310641 -0.386353 0
-0.310571 -0.401107 0
-0.309558 -0.414630 0
-0.307509 -0.426690 0
-0.304338 -0.437043 0
-0.299967 -0.445444 0
-0.294328 -0.451642 0
-0.287370 -0.455393 0
-0.279062 -0.456459 0
-0.269396 -0.454623 0
-0.258388 -0.449690 0
-0.246087 -0.441503 0
-0.232571 -0.429954 0
-0.217951 -0.414995 0
-0.202373 -0.396648 0
-0.186010 -0.375025 0
-0.169065 -0.350326 0
-0.151761 -0.322846 0
-0.134334 -0.292968 0
-0.117019 -0.261144 0
-0.100038 -0.227866 0
-0.083588 -0.193626 0
-0.067819 -0.158866 0
-0.052831 -0.123915 0
-0.038652 -0.088939 0
-0.025234 -0.053860 0
-0.012437 -0.018272 0
0.000000 0.000000 0
0.000000 0.000000 0
-0.087457 -0.020893 0
-0.150192 -0.039065 0
-0.187989 -0.053810 0
-0.209852 -0.066623 0
-0.223491 -0.078978 0
-0.233273 -0.091706 0
-0.241280 -0.105142 0
-0.248418 -0.119368 0
-0.255064 -0.134356 0
-0.261369 -0.150044 0
-0.267393 -0.166360 0
-0.273158 -0.183235 0
-0.278670 -0.200602 0
-0.283923 -0.218391 0
-0.288907 -0.236529 0
-0.293600 -0.254931 0
-0.297972 -0.273507 0
-0.301981 -0.292148 0
-0.305579 -0.310734 0
-0.308701 -0.329127 0
-0.311276 -0.347172 0
-0.313222 -0.364696 0
-0.314449 -0.381510 0
-0.314860 -0.397407 0
-0.314355 -0.412163 0
-0.312834 -0.425543 0
-0.310200 -0.437298 0
-0.306361 -0.447171 0
-0.301236 -0.454898 0
-0.294761 -0.460217 0
-0.286887 -0.462871 0
-0.277592 -0.462613 0
-0.266877 -0.459219 0
-0.254777 -0.452498 0
-0.241357 -0.442300 0
-0.226721 -0.428535 0
-0.211006 -0.411180 0
-0.194383 -0.390300 0
-0.177057 -0.366050 0
-0.159256 -0.338686 0
-0.141225 -0.308563 0
-0.123217 -0.276116 0
-0.105474 -0.241839 0
-0.088216 -0.206243 0
-0.071620 -0.169798 0
-0.055807 -0.132876 0
-0.040828 -0.095672 0
-0.026648 -0.058122 0
-0.013130 -0.019786 0
0.000000 0.000000 0
0.000000 0.000000 0
-0.086979 -0.014304 0
-0.149561 -0.028133 0
-0.187456 -0.040637 0
-0.209530 -0.052514 0
-0.223408 -0.064592 0
-0.233420 -0.077346 0
-0.241633 -0.090949 0
-0.248950 -0.105409 0
-0.255749 -0.120670 0
-0.262185 -0.136656 0
-0.268323 -0.153295 0
-0.274191 -0.170518 0
-0.279804 -0.188260 0
-0.285165 -0.206456 0
-0.290269 -0.225040 0
-0.295104 -0.243934 0
-0.299647 -0.263053 0
-0.303864 -0.282300 0
-0.307709 -0.301560 0
-0.311125 -0.320704 0
-0.314041 -0.339584 0
-0.316376 -0.358033 0
-0.318037 -0.375866 0
-0.318925 -0.392880 0
-0.318934 -0.408851 0
-0.317954 -0.423541 0
-0.315878 -0.436697 0
-0.312601 -0.448052 0
-0.308028 -0.457333 0
-0.302078 -0.464259 0
-0.294688 -0.468552 0
-0.285815 -0.469941 0
-0.275447 -0.468171 0
-0.263602 -0.463014 0
-0.250330 -0.454281 0
-0.235724 -0.441837 0
-0.219912 -0.425611 0
-0.203062 -0.405617 0
-0.185377 -0.381962 0
-0.167090 -0.354858 0
-0.148457 -0.324620 0
-0.129746 -0.291661 0
-0.111220 -0.256465 0
-0.093122 -0.219550 0
-0.075658 -0.181415 0
-0.058974 -0.142464 0