# vtk DataFile Version 2.0
generated by CFD-lab course output (written by Tobias Neckel) 
ASCII

DATASET STRUCTURED_GRID
DIMENSIONS  51 51 1 
POINTS 2601 float

0.000000 0.000000 0
0.020000 0.000000 0
0.040000 0.000000 0
0.060000 0.000000 0
0.080000 0.000000 0
0.100000 0.000000 0
0.120000 0.000000 0
0.140000 0.000000 0
0.160000 0.000000 0
0.180000 0.000000 0
0.200000 0.000000 0
0.220000 0.000000 0
0.240000 0.000000 0
0.260000 0.000000 0
0.280000 0.000000 0
0.300000 0.000000 0
0.320000 0.000000 0
0.340000 0.000000 0
0.360000 0.000000 0
0.380000 0.000000 0
0.400000 0.000000 0
0.420000 0.000000 0
0.440000 0.000000 0
0.460000 0.000000 0
0.480000 0.000000 0
0.500000 0.000000 0
0.520000 0.000000 0
0.540000 0.000000 0
0.560000 0.000000 0
0.580000 0.000000 0
0.600000 0.000000 0
0.620000 0.000000 0
0.640000 0.000000 0
0.660000 0.000000 0
0.680000 0.000000 0
0.700000 0.000000 0
0.720000 0.000000 0
0.740000 0.000000 0
0.760000 0.000000 0
0.780000 0.000000 0
0.800000 0.000000 0
0.820000 0.000000 0
0.840000 0.000000 0
0.860000 0.000000 0
0.880000 0.000000 0
0.900000 0.000000 0
0.920000 0.000000 0
0.940000 0.000000 0
0.960000 0.000000 0
0.980000 0.000000 0
1.000000 0.000000 0
0.000000 0.020000 0
0.020000 0.020000 0
0.040000 0.020000 0
0.060000 0.020000 0
0.080000 0.020000 0
0.100000 0.020000 0
0.120000 0.020000 0
0.140000 0.020000 0
0.160000 0.020000 0
0.180000 0.020000 0
0.200000 0.020000 0
0.220000 0.020000 0
0.240000 0.020000 0
0.260000 0.020000 0
0.280000 0.020000 0
0.300000 0.020000 0
0.320000 0.020000 0
0.340000 0.020000 0
0.360000 0.020000 0
0.380000 0.020000 0
0.400000 0.020000 0
0.420000 0.020000 0
0.440000 0.020000 0
0.460000 0.020000 0
0.480000 0.020000 0
0.500000 0.020000 0
0.520000 0.020000 0
0.540000 0.020000 0
0.560000 0.020000 0
0.580000 0.020000 0
0.600000 0.020000 0
0.620000 0.020000 0
0.640000 0.020000 0
0.660000 0.020000 0
0.680000 0.020000 0
0.700000 0.020000 0
0.720000 0.020000 0
0.740000 0.020000 0
0.760000 0.020000 0
0.780000 0.020000 0
0.800000 0.020000 0
0.820000 0.020000 0
0.840000 0.020000 0
0.860000 0.020000 0
0.880000 0.020000 0
0.900000 0.020000 0
0.920000 0.020000 0
0.940000 0.020000 0
0.960000 0.020000 0
0.980000 0.020000 0
1.000000 0.020000 0
0.000000 0.040000 0
0.020000 0.040000 0
0.040000 0.040000 0
0.060000 0.040000 0
0.080000 0.040000 0
0.100000 0.040000 0
0.120000 0.040000 0
0.140000 0.040000 0
0.160000 0.040000 0
0.180000 0.040000 0
0.200000 0.040000 0
0.220000 0.040000 0
0.240000 0.040000 0
0.260000 0.040000 0
0.280000 0.040000 0
0.300000 0.040000 0
0.320000 0.040000 0
0.340000 0.040000 0
0.360000 0.040000 0
0.380000 0.040000 0
0.400000 0.040000 0
0.420000 0.040000 0
0.440000 0.040000 0
0.460000 0.040000 0
0.480000 0.040000 0
0.500000 0.040000 0
0.520000 0.040000 0
0.540000 0.040000 0
0.560000 0.040000 0
0.580000 0.040000 0
0.600000 0.040000 0
0.620000 0.040000 0
0.640000 0.040000 0
0.660000 0.040000 0
0.680000 0.040000 0
0.700000 0.040000 0
0.720000 0.040000 0
0.740000 0.040000 0
0.760000 0.040000 0
0.780000 0.040000 0
0.800000 0.040000 0
0.820000 0.040000 0
0.840000 0.040000 0
0.860000 0.040000 0
0.880000 0.040000 0
0.900000 0.040000 0
0.920000 0.040000 0
0.940000 0.040000 0
0.960000 0.040000 0
0.980000 0.040000 0
1.000000 0.040000 0
0.000000 0.060000 0
0.020000 0.060000 0
0.040000 0.060000 0
0.060000 0.060000 0
0.080000 0.060000 0
0.100000 0.060000 0
0.120000 0.060000 0
0.140000 0.060000 0
0.160000 0.060000 0
0.180000 0.060000 0
0.200000 0.060000 0
0.220000 0.060000 0
0.240000 0.060000 0
0.260000 0.060000 0
0.280000 0.060000 0
0.300000 0.060000 0
0.320000 0.060000 0
0.340000 0.060000 0
0.360000 0.060000 0
0.380000 0.060000 0
0.400000 0.060000 0
0.420000 0.060000 0
0.440000 0.060000 0
0.460000 0.060000 0
0.480000 0.060000 0
0.500000 0.060000 0
0.520000 0.060000 0
0.540000 0.060000 0
0.560000 0.060000 0
0.580000 0.060000 0
0.600000 0.060000 0
0.620000 0.060000 0
0.640000 0.060000 0
0.660000 0.060000 0
0.680000 0.060000 0
0.700000 0.060000 0
0.720000 0.060000 0
0.740000 0.060000 0
0.760000 0.060000 0
0.780000 0.060000 0
0.800000 0.060000 0
0.820000 0.060000 0
0.840000 0.060000 0
0.860000 0.060000 0
0.880000 0.060000 0
0.900000 0.060000 0
0.920000 0.060000 0
0.940000 0.060000 0
0.960000 0.060000 0
0.980000 0.060000 0
1.000000 0.060000 0
0.000000 0.080000 0
0.020000 0.080000 0
0.040000 0.080000 0
0.060000 0.080000 0
0.080000 0.080000 0
0.100000 0.080000 0
0.120000 0.080000 0
0.140000 0.080000 0
0.160000 0.080000 0
0.180000 0.080000 0
0.200000 0.080000 0
0.220000 0.080000 0
0.240000 0.080000 0
0.260000 0.080000 0
0.280000 0.080000 0
0.300000 0.080000 0
0.320000 0.080000 0
0.340000 0.080000 0
0.360000 0.080000 0
0.380000 0.080000 0
0.400000 0.080000 0
0.420000 0.080000 0
0.440000 0.080000 0
0.460000 0.080000 0
0.480000 0.080000 0
0.500000 0.080000 0
0.520000 0.080000 0
0.540000 0.080000 0
0.560000 0.080000 0
0.580000 0.080000 0
0.600000 0.080000 0
0.620000 0.080000 0
0.640000 0.080000 0
0.660000 0.080000 0
0.680000 0.080000 0
0.700000 0.080000 0
0.720000 0.080000 0
0.740000 0.080000 0
0.760000 0.080000 0
0.780000 0.080000 0
0.800000 0.080000 0
0.820000 0.080000 0
0.840000 0.080000 0
0.860000 0.080000 0
0.880000 0.080000 0
0.900000 0.080000 0
0.920000 0.080000 0
0.940000 0.080000 0
0.960000 0.080000 0
0.980000 0.080000 0
1.000000 0.080000 0
0.000000 0.100000 0
0.020000 0.100000 0
0.040000 0.100000 0
0.060000 0.100000 0
0.080000 0.100000 0
0.100000 0.100000 0
0.120000 0.100000 0
0.140000 0.100000 0
0.160000 0.100000 0
0.180000 0.100000 0
0.200000 0.100000 0
0.220000 0.100000 0
0.240000 0.100000 0
0.260000 0.100000 0
0.280000 0.100000 0
0.300000 0.100000 0
0.320000 0.100000 0
0.340000 0.100000 0
0.360000 0.100000 0
0.380000 0.100000 0
0.400000 0.100000 0
0.420000 0.100000 0
0.440000 0.100000 0
0.460000 0.100000 0
0.480000 0.100000 0
0.500000 0.100000 0
0.520000 0.100000 0
0.540000 0.100000 0
0.560000 0.100000 0
0.580000 0.100000 0
0.600000 0.100000 0
0.620000 0.100000 0
0.640000 0.100000 0
0.660000 0.100000 0
0.680000 0.100000 0
0.700000 0.100000 0
0.720000 0.100000 0
0.740000 0.100000 0
0.760000 0.100000 0
0.780000 0.100000 0
0.800000 0.100000 0
0.820000 0.100000 0
0.840000 0.100000 0
0.860000 0.100000 0
0.880000 0.100000 0
0.900000 0.100000 0
0.920000 0.100000 0
0.940000 0.100000 0
0.960000 0.100000 0
0.980000 0.100000 0
1.000000 0.100000 0
0.000000 0.120000 0
0.020000 0.120000 0
0.040000 0.120000 0
0.060000 0.120000 0
0.080000 0.120000 0
0.100000 0.120000 0
0.120000 0.120000 0
0.140000 0.120000 0
0.160000 0.120000 0
0.180000 0.120000 0
0.200000 0.120000 0
0.220000 0.120000 0
0.240000 0.120000 0
0.260000 0.120000 0
0.280000 0.120000 0
0.300000 0.120000 0
0.320000 0.120000 0
0.340000 0.120000 0
0.360000 0.120000 0
0.380000 0.120000 0
0.400000 0.120000 0
0.420000 0.120000 0
0.440000 0.120000 0
0.460000 0.120000 0
0.480000 0.120000 0
0.500000 0.120000 0
0.520000 0.120000 0
0.540000 0.120000 0
0.560000 0.120000 0
0.580000 0.120000 0
0.600000 0.120000 0
0.620000 0.120000 0
0.640000 0.120000 0
0.660000 0.120000 0
0.680000 0.120000 0
0.700000 0.120000 0
0.720000 0.120000 0
0.740000 0.120000 0
0.760000 0.120000 0
0.780000 0.120000 0
0.800000 0.120000 0
0.820000 0.120000 0
0.840000 0.120000 0
0.860000 0.120000 0
0.880000 0.120000 0
0.900000 0.120000 0
0.920000 0.120000 0
0.940000 0.120000 0
0.960000 0.120000 0
0.980000 0.120000 0
1.000000 0.120000 0
0.000000 0.140000 0
0.020000 0.140000 0
0.040000 0.140000 0
0.060000 0.140000 0
0.080000 0.140000 0
0.100000 0.140000 0
0.120000 0.140000 0
0.140000 0.140000 0
0.160000 0.140000 0
0.180000 0.140000 0
0.200000 0.140000 0
0.220000 0.140000 0
0.240000 0.140000 0
0.260000 0.140000 0
0.280000 0.140000 0
0.300000 0.140000 0
0.320000 0.140000 0
0.340000 0.140000 0
0.360000 0.140000 0
0.380000 0.140000 0
0.400000 0.140000 0
0.420000 0.140000 0
0.440000 0.140000 0
0.460000 0.140000 0
0.480000 0.140000 0
0.500000 0.140000 0
0.520000 0.140000 0
0.540000 0.140000 0
0.560000 0.140000 0
0.580000 0.140000 0
0.600000 0.140000 0
0.620000 0.140000 0
0.640000 0.140000 0
0.660000 0.140000 0
0.680000 0.140000 0
0.700000 0.140000 0
0.720000 0.140000 0
0.740000 0.140000 0
0.760000 0.140000 0
0.780000 0.140000 0
0.800000 0.140000 0
0.820000 0.140000 0
0.840000 0.140000 0
0.860000 0.140000 0
0.880000 0.140000 0
0.900000 0.140000 0
0.920000 0.140000 0
0.940000 0.140000 0
0.960000 0.140000 0
0.980000 0.140000 0
1.000000 0.140000 0
0.000000 0.160000 0
0.020000 0.160000 0
0.040000 0.160000 0
0.060000 0.160000 0
0.080000 0.160000 0
0.100000 0.160000 0
0.120000 0.160000 0
0.140000 0.160000 0
0.160000 0.160000 0
0.180000 0.160000 0
0.200000 0.160000 0
0.220000 0.160000 0
0.240000 0.160000 0
0.260000 0.160000 0
0.280000 0.160000 0
0.300000 0.160000 0
0.320000 0.160000 0
0.340000 0.160000 0
0.360000 0.160000 0
0.380000 0.160000 0
0.400000 0.160000 0
0.420000 0.160000 0
0.440000 0.160000 0
0.460000 0.160000 0
0.480000 0.160000 0
0.500000 0.160000 0
0.520000 0.160000 0
0.540000 0.160000 0
0.560000 0.160000 0
0.580000 0.160000 0
0.600000 0.160000 0
0.620000 0.160000 0
0.640000 0.160000 0
0.660000 0.160000 0
0.680000 0.160000 0
0.700000 0.160000 0
0.720000 0.160000 0
0.740000 0.160000 0
0.760000 0.160000 0
0.780000 0.160000 0
0.800000 0.160000 0
0.820000 0.160000 0
0.840000 0.160000 0
0.860000 0.160000 0
0.880000 0.160000 0
0.900000 0.160000 0
0.920000 0.160000 0
0.940000 0.160000 0
0.960000 0.160000 0
0.980000 0.160000 0
1.000000 0.160000 0
0.000000 0.180000 0
0.020000 0.180000 0
0.040000 0.180000 0
0.060000 0.180000 0
0.080000 0.180000 0
0.100000 0.180000 0
0.120000 0.180000 0
0.140000 0.180000 0
0.160000 0.180000 0
0.180000 0.180000 0
0.200000 0.180000 0
0.220000 0.180000 0
0.240000 0.180000 0
0.260000 0.180000 0
0.280000 0.180000 0
0.300000 0.180000 0
0.320000 0.180000 0
0.340000 0.180000 0
0.360000 0.180000 0
0.380000 0.180000 0
0.400000 0.180000 0
0.420000 0.180000 0
0.440000 0.180000 0
0.460000 0.180000 0
0.480000 0.180000 0
0.500000 0.180000 0
0.520000 0.180000 0
0.540000 0.180000 0
0.560000 0.180000 0
0.580000 0.180000 0
0.600000 0.180000 0
0.620000 0.180000 0
[...]
POINT_DATA 2601 

VECTORS velocity float
0.000000 0.000000 0
0.000000 0.000000 0
0.000000 0.000000 0
0.000000 0.000000 0
0.000000 0.000000 0
0.000000 0.000000 0
0.000000 0.000000 0
0.000000 0.000000 0
0.000000 0.000000 0
0.000000 0.000000 0
0.000000 0.000000 0
0.000000 0.000000 0
0.000000 0.000000 0
0.000000 0.000000 0
0.000000 0.000000 0
0.000000 0.000000 0
0.000000 0.000000 0
0.000000 0.000000 0
0.000000 0.000000 0
0.000000 0.000000 0
0.000000 0.000000 0
0.000000 0.000000 0
0.000000 0.000000 0
0.000000 0.000000 0
0.000000 0.000000 0
0.000000 0.000000 0
0.000000 0.000000 0
0.000000 0.000000 0
0.000000 0.000000 0
0.000000 0.000000 0
0.000000 0.000000 0
0.000000 0.000000 0
0.000000 0.000000 0
0.000000 0.000000 0
0.000000 0.000000 0
0.000000 0.000000 0
0.000000 0.000000 0
0.000000 0.000000 0
0.000000 0.000000 0
0.000000 0.000000 0
0.000000 0.000000 0
-0.000000 0.000000 0
-0.000000 0.000000 0
-0.000000 0.000000 0
-0.000000 0.000000 0
-0.000000 0.000000 0
-0.000000 0.000000 0
-0.000000 0.000000 0
-0.000000 0.000000 0
-0.000000 0.000000 0
0.000000 0.000000 0
0.000000 0.000000 0
-0.000037 -0.000179 0
-0.000073 -0.000362 0
-0.000110 -0.000557 0
-0.000148 -0.000768 0
-0.000186 -0.001001 0
-0.000225 -0.001262 0
-0.000266 -0.001558 0
-0.000308 -0.001898 0
-0.000352 -0.002291 0
-0.000400 -0.002747 0
-0.000451 -0.003280 0
-0.000508 -0.003904 0
-0.000570 -0.004638 0
-0.000642 -0.005503 0
-0.000723 -0.006527 0
-0.000818 -0.007739 0
-0.000930 -0.009180 0
-0.001063 -0.010896 0
-0.001222 -0.012942 0
-0.001414 -0.015387 0
-0.001647 -0.018311 0
-0.001932 -0.021808 0
-0.002278 -0.025987 0
-0.002700 -0.030973 0
-0.003214 -0.036899 0
-0.003836 -0.043903 0
-0.004584 -0.052115 0
-0.005473 -0.061630 0
-0.006515 -0.072484 0
-0.007712 -0.084607 0
-0.009052 -0.097772 0
-0.010504 -0.111547 0
-0.012009 -0.125252 0
-0.013479 -0.137961 0
-0.014800 -0.148557 0
-0.015842 -0.155858 0
-0.016476 -0.158819 0
-0.016603 -0.156760 0
-0.016173 -0.149554 0
-0.015205 -0.137710 0
-0.013785 -0.122288 0
-0.012048 -0.104690 0
-0.010150 -0.086368 0
-0.008237 -0.068570 0
-0.006423 -0.052176 0
-0.004780 -0.037647 0
-0.003337 -0.025064 0
-0.002087 -0.014202 0
-0.000995 -0.004578 0
0.000000 0.000000 0
0.000000 0.000000 0
-0.000073 -0.000352 0
-0.000146 -0.000714 0
-0.000220 -0.001096 0
-0.000294 -0.001511 0
-0.000370 -0.001968 0
-0.000448 -0.002480 0
-0.000528 -0.003062 0
-0.000611 -0.003727 0
-0.000698 -0.004494 0
-0.000791 -0.005384 0
-0.000891 -0.006420 0
-0.001000 -0.007631 0
-0.001121 -0.009049 0
-0.001257 -0.010716 0
-0.001412 -0.012677 0
-0.001592 -0.014990 0
-0.001802 -0.017721 0
-0.002050 -0.020951 0
-0.002345 -0.024773 0
-0.002698 -0.029298 0
-0.003122 -0.034650 0
-0.003633 -0.040974 0
-0.004248 -0.048426 0
-0.004989 -0.057174 0
-0.005876 -0.067384 0
-0.006933 -0.079208 0
-0.008180 -0.092759 0
-0.009636 -0.108079 0
-0.011308 -0.125101 0
-0.013191 -0.143601 0
-0.015260 -0.163150 0
-0.017462 -0.183077 0
-0.019713 -0.202448 0
-0.021894 -0.220090 0
-0.023857 -0.234650 0
-0.025431 -0.244733 0
-0.026447 -0.249085 0
-0.026762 -0.246807 0
-0.026290 -0.237566 0
-0.025023 -0.221719 0
-0.023040 -0.200306 0
-0.020497 -0.174908 0
-0.017597 -0.147368 0
-0.014553 -0.119483 0
-0.011555 -0.092730 0
-0.008741 -0.068092 0
-0.006188 -0.045997 0
-0.003914 -0.026345 0
-0.001881 -0.008543 0
0.000000 0.000000 0
0.000000 0.000000 0
-0.000109 -0.000514 0
-0.000218 -0.001042 0
-0.000327 -0.001601 0
-0.000438 -0.002205 0
-0.000551 -0.002871 0
-0.000665 -0.003617 0
-0.000783 -0.004460 0
-0.000904 -0.005424 0
-0.001031 -0.006533 0
-0.001165 -0.007815 0
-0.001309 -0.009301 0
-0.001464 -0.011031 0
-0.001635 -0.013048 0
-0.001826 -0.015404 0
-0.002042 -0.018159 0
-0.002289 -0.021383 0
-0.002576 -0.025160 0
-0.002910 -0.029582 0
-0.003303 -0.034759 0
-0.003769 -0.040812 0
-0.004321 -0.047873 0
-0.004977 -0.056087 0
-0.005756 -0.065601 0
-0.006678 -0.076558 0
-0.007765 -0.089088 0
-0.009037 -0.103282 0
-0.010511 -0.119181 0
-0.012202 -0.136741 0
-0.014110 -0.155809 0
-0.016228 -0.176089 0
-0.018524 -0.197113 0
-0.020948 -0.218215 0
-0.023416 -0.238520 0
-0.025815 -0.256948 0
-0.028001 -0.272261 0
-0.029806 -0.283148 0
-0.031054 -0.288372 0
-0.031586 -0.286959 0
-0.031290 -0.278391 0
-0.030123 -0.262756 0
-0.028130 -0.240794 0
-0.025437 -0.213817 0
-0.022230 -0.183511 0
-0.018729 -0.151682 0
-0.015146 -0.119976 0
-0.011656 -0.089664 0
-0.008379 -0.061494 0
-0.005366 -0.035631 0
-0.002602 -0.011629 0
0.000000 0.000000 0
0.000000 0.000000 0
-0.000144 -0.000660 0
-0.000288 -0.001339 0
-0.000433 -0.002056 0
-0.000579 -0.002831 0
-0.000727 -0.003684 0
-0.000876 -0.004636 0
-0.001029 -0.005712 0
-0.001186 -0.006937 0
-0.001348 -0.008343 0
-0.001518 -0.009960 0
-0.001699 -0.011829 0
-0.001892 -0.013991 0
-0.002103 -0.016497 0
-0.002336 -0.019404 0
-0.002596 -0.022778 0
-0.002890 -0.026693 0
-0.003227 -0.031232 0
-0.003616 -0.036491 0
-0.004068 -0.042572 0
-0.004595 -0.049587 0
-0.005213 -0.057654 0
-0.005937 -0.066892 0
-0.006785 -0.077416 0
-0.007775 -0.089330 0
-0.008926 -0.102714 0
-0.010255 -0.117614 0
-0.011778 -0.134027 0
-0.013506 -0.151884 0
-0.015443 -0.171030 0
-0.017582 -0.191201 0
-0.019899 -0.211997 0
-0.022353 -0.232855 0
-0.024873 -0.253017 0
-0.027355 -0.271516 0
-0.029664 -0.287195 0
-0.031633 -0.298774 0
-0.033079 -0.304982 0
-0.033828 -0.304748 0
-0.033748 -0.297409 0
-0.032771 -0.282875 0
-0.030914 -0.261693 0
-0.028281 -0.234976 0
-0.025038 -0.204235 0
-0.021390 -0.171144 0
-0.017548 -0.137305 0
-0.013697 -0.104043 0
-0.009975 -0.072248 0
-0.006460 -0.042274 0
-0.003157 -0.013875 0
0.000000 0.000000 0
0.000000 0.000000 0
-0.000179 -0.000787 0
-0.000357 -0.001595 0
-0.000537 -0.002449 0
-0.000716 -0.003370 0
-0.000897 -0.004382 0
-0.001080 -0.005510 0
-0.001265 -0.006782 0
-0.001453 -0.008226 0
-0.001646 -0.009875 0
-0.001847 -0.011766 0
-0.002057 -0.013940 0
-0.002279 -0.016440 0
-0.002519 -0.019319 0
-0.002779 -0.022634 0
-0.003067 -0.026449 0
-0.003389 -0.030835 0
-0.003752 -0.035871 0
-0.004165 -0.041640 0
-0.004640 -0.048234 0
-0.005187 -0.055747 0
-0.005821 -0.064273 0
-0.006555 -0.073907 0
-0.007406 -0.084735 0
-0.008390 -0.096833 0
-0.009526 -0.110259 0
-0.010829 -0.125045 0
-0.012316 -0.141193 0
-0.014001 -0.158655 0
-0.015892 -0.177325 0
-0.017990 -0.197009 0
-0.020283 -0.217397 0
-0.022737 -0.238018 0
-0.025293 -0.258200 0
-0.027856 -0.277037 0
-0.030293 -0.293388 0
-0.032433 -0.305938 0
-0.034084 -0.313329 0
-0.035053 -0.314366 0
-0.035186 -0.308248 0
-0.034395 -0.294758 0
-0.032680 -0.274337 0
-0.030129 -0.248019 0
-0.026901 -0.217242 0
-0.023195 -0.183612 0
-0.019216 -0.148670 0
-0.015150 -0.113713 0
-0.011141 -0.079656 0
-0.007275 -0.046942 0
-0.003578 -0.015472 0
0.000000 0.000000 0
0.000000 0.000000 0
-0.000213 -0.000889 0
-0.000425 -0.001804 0
-0.000638 -0.002768 0
-0.000850 -0.003807 0
-0.001063 -0.004948 0
-0.001276 -0.006218 0
-0.001490 -0.007645 0
-0.001706 -0.009262 0
-0.001925 -0.011102 0
-0.002150 -0.013201 0
-0.002382 -0.015602 0
-0.002625 -0.018348 0
-0.002882 -0.021488 0
-0.003158 -0.025077 0
-0.003459 -0.029175 0
-0.003789 -0.033844 0
-0.004158 -0.039154 0
-0.004572 -0.045177 0
-0.005042 -0.051990 0
-0.005579 -0.059670 0
-0.006194 -0.068295 0
-0.006902 -0.077941 0
-0.007717 -0.088680 0
-0.008657 -0.100580 0
-0.009738 -0.113698 0
-0.010980 -0.128079 0
-0.012401 -0.143750 0
-0.014020 -0.160707 0
-0.015851 -0.178900 0
-0.017903 -0.198205 0
-0.020173 -0.218383 0
-0.022637 -0.239035 0
-0.025244 -0.259541 0
-0.027905 -0.279023 0
-0.030489 -0.296327 0
-0.032820 -0.310077 0
-0.034690 -0.318811 0
-0.035890 -0.321190 0
-0.036240 -0.316268 0
-0.035629 -0.303703 0
-0.034041 -0.283862 0
-0.031558 -0.257753 0
-0.028337 -0.226822 0
-0.024578 -0.192683 0
-0.020490 -0.156874 0
-0.016260 -0.120677 0
-0.012034 -0.085003 0
-0.007905 -0.050325 0
-0.003904 -0.016633 0
0.000000 0.000000 0
0.000000 0.000000 0
-0.000246 -0.000966 0
-0.000492 -0.001959 0
-0.000737 -0.003006 0
-0.000981 -0.004134 0
-0.001224 -0.005371 0
-0.001465 -0.006746 0
-0.001705 -0.008289 0
-0.001945 -0.010031 0
-0.002186 -0.012008 0
-0.002429 -0.014254 0
-0.002677 -0.016810 0
-0.002932 -0.019717 0
-0.003198 -0.023021 0
-0.003479 -0.026771 0
-0.003779 -0.031020 0
-0.004104 -0.035824 0
-0.004462 -0.041242 0
-0.004860 -0.047336 0
-0.005306 -0.054170 0
-0.005811 -0.061811 0
-0.006387 -0.070325 0
-0.007048 -0.079783 0
-0.007808 -0.090253 0
-0.008684 -0.101807 0
-0.009696 -0.114513 0
-0.010865 -0.128441 0
-0.012214 -0.143647 0
-0.013764 -0.160173 0
-0.015538 -0.178019 0
-0.017550 -0.197115 0
-0.019806 -0.217282 0
-0.022291 -0.238171 0
-0.024961 -0.259204 0
-0.027734 -0.279517 0
-0.030478 -0.297942 0
-0.033013 -0.313039 0
-0.035120 -0.323235 0
-0.036566 -0.327044 0
-0.037144 -0.323354 0
-0.036720 -0.311688 0
-0.035259 -0.292332 0
-0.032834 -0.266285 0
-0.029605 -0.235037 0
-0.025780 -0.200265 0
-0.021578 -0.163561 0
-0.017193 -0.126234 0
-0.012775 -0.089203 0
-0.008422 -0.052956 0
-0.004172 -0.017531 0
0.000000 0.000000 0
0.000000 0.000000 0
-0.000280 -0.001014 0
-0.000559 -0.002057 0
-0.000836 -0.003157 0
-0.001110 -0.004342 0
-0.001382 -0.005642 0
-0.001649 -0.007086 0
-0.001913 -0.008704 0
-0.002174 -0.010529 0
-0.002432 -0.012593 0
-0.002689 -0.014930 0
-0.002946 -0.017578 0
-0.003207 -0.020575 0
-0.003473 -0.023963 0
-0.003749 -0.027784 0
-0.004040 -0.032085 0
-0.004349 -0.036916 0
-0.004684 -0.042326 0
-0.005053 -0.048371 0
-0.005463 -0.055106 0
-0.005924 -0.062592 0
-0.006450 -0.070892 0
-0.007052 -0.080074 0
-0.007747 -0.090212 0
-0.008553 -0.101387 0
-0.009491 -0.113685 0
-0.010585 -0.127197 0
-0.011860 -0.142011 0
-0.013344 -0.158204 0
-0.015064 -0.175819 0
-0.017041 -0.194832 0
-0.019288 -0.215110 0
-0.021799 -0.236351 0
-0.024537 -0.258011 0
-0.027427 -0.279250 0
-0.030340 -0.298884 0
-0.033091 -0.315421 0
-0.035449 -0.327179 0
-0.037159 -0.332514 0
-0.037986 -0.330140 0
-0.037765 -0.319421 0
-0.036440 -0.300546 0
-0.034073 -0.274499 0
-0.030827 -0.242828 0
-0.026924 -0.207306 0
-0.022595 -0.169619 0
-0.018048 -0.131142 0
-0.013443 -0.092830 0
-0.008882 -0.055190 0
-0.004407 -0.018287 0
0.000000 0.000000 0
0.000000 0.000000 0
-0.000314 -0.001033 0
-0.000626 -0.002095 0
-0.000935 -0.003217 0
-0.001240 -0.004427 0
-0.001539 -0.005757 0
-0.001831 -0.007235 0
-0.002117 -0.008892 0
-0.002396 -0.010758 0
-0.002668 -0.012865 0
-0.002934 -0.015246 0
-0.003197 -0.017933 0
-0.003457 -0.020963 0
-0.003717 -0.024371 0
-0.003982 -0.028196 0
-0.004254 -0.032479 0
-0.004540 -0.037263 0
-0.004845 -0.042592 0
-0.005176 -0.048516 0
-0.005541 -0.055087 0
-0.005952 -0.062362 0
-0.006419 -0.070404 0
-0.006957 -0.079285 0
-0.007583 -0.089086 0
-0.008316 -0.099898 0
-0.009179 -0.111824 0
-0.010197 -0.124974 0
-0.011400 -0.139465 0
-0.012820 -0.155401 0
-0.014487 -0.172861 0
-0.016430 -0.191860 0
-0.018668 -0.212308 0
-0.021203 -0.233947 0
-0.024009 -0.256273 0
-0.027017 -0.278473 0
-0.030102 -0.299362 0
-0.033079 -0.317402 0
-0.035702 -0.330806 0
-0.037696 -0.337775 0
-0.038795 -0.336828 0
-0.038801 -0.327149 0
-0.037629 -0.308809 0
-0.035329 -0.282763 0
-0.032065 -0.250620 0
-0.028074 -0.214265 0
-0.023606 -0.175508 0
-0.018886 -0.135821 0
-0.014087 -0.096221 0
-0.009319 -0.057245 0
-0.004628 -0.018976 0
0.000000 0.000000 0
0.000000 0.000000 0
-0.000349 -0.001020 0
-0.000695 -0.002070 0
-0.001036 -0.003183 0
-0.001371 -0.004387 0
-0.001698 -0.005714 0
-0.002015 -0.007193 0
-0.002321 -0.008854 0
-0.002615 -0.010726 0
-0.002899 -0.012839 0
-0.003172 -0.015223 0
-0.003435 -0.017908 0
-0.003690 -0.020925 0
-0.003940 -0.024308 0
-0.004188 -0.028090 0
-0.004437 -0.032307 0
-0.004693 -0.036998 0
-0.004961 -0.042203 0
-0.005249 -0.047968 0
-0.005565 -0.054344 0
-0.005920 -0.061387 0
-0.006325 -0.069162 0
-0.006796 -0.077746 0
-0.007350 -0.087227 0
-0.008009 -0.097706 0
-0.008795 -0.109299 0
-0.009738 -0.122137 0
-0.010869 -0.136353 0
-0.012222 -0.152079 0
-0.013835 -0.169423 0
-0.015741 -0.188437 0
-0.017966 -0.209071 0
-0.020522 -0.231113 0
-0.023391 -0.254106 0
-0.026514 -0.277269 0
-0.029773 -0.299432 0
-0.032981 -0.319019 0
-0.035884 -0.334149 0
-0.038184 -0.342861 0
-0.039581 -0.343469 0
-0.039839 -0.334953 0
-0.038844 -0.317239 0
-0.036626 -0.291237 0
-0.033350 -0.258609 0
-0.029266 -0.221369 0
-0.024648 -0.181467 0
-0.019743 -0.140501 0
-0.014738 -0.099569 0
-0.009756 -0.059250 0
-0.004847 -0.019642 0
0.000000 0.000000 0
0.000000 0.000000 0
-0.000385 -0.000974 0
-0.000767 -0.001981 0
-0.001142 -0.003052 0
-0.001508 -0.004219 0
-0.001863 -0.005512 0
-0.002204 -0.006962 0
-0.002529 -0.008596 0
-0.002839 -0.010443 0
-0.003131 -0.012530 0
-0.003408 -0.014885 0
-0.003669 -0.017536 0
-0.003916 -0.020509 0
-0.004152 -0.023834 0
-0.004378 -0.027542 0
-0.004600 -0.031663 0
-0.004822 -0.036234 0
-0.005049 -0.041293 0
-0.005290 -0.046883 0
-0.005553 -0.053054 0
-0.005848 -0.059863 0
-0.006189 -0.067379 0
-0.006591 -0.075681 0
-0.007072 -0.084865 0
-0.007654 -0.095041 0
-0.008362 -0.106336 0
-0.009227 -0.118893 0
-0.010283 -0.132865 0
-0.011568 -0.148405 0
-0.013122 -0.165646 0
-0.014986 -0.184677 0
-0.017192 -0.205487 0
-0.019762 -0.227913 0
-0.022687 -0.251550 0
-0.025920 -0.275662 0
-0.029351 -0.299099 0
-0.032796 -0.320266 0
-0.035992 -0.337193 0
-0.038619 -0.347761 0
-0.040343 -0.350063 0
-0.040886 -0.342852 0
-0.040094 -0.325881 0
-0.037978 -0.299992 0
-0.034698 -0.266895 0
-0.030521 -0.228735 0
-0.025744 -0.187626 0
-0.020639 -0.145308 0
-0.015415 -0.102981 0
-0.010206 -0.061278 0
-0.005072 -0.020314 0
0.000000 0.000000 0
0.000000 0.000000 0
-0.000424 -0.000896 0
-0.000844 -0.001825 0
-0.001255 -0.002823 0
-0.001654 -0.003922 0
-0.002037 -0.005151 0
-0.002403 -0.006542 0
-0.002748 -0.008122 0
-0.003071 -0.009918 0
-0.003372 -0.011954 0
-0.003651 -0.014256 0
-0.003908 -0.016848 0
-0.004144 -0.019755 0
-0.004362 -0.023002 0
-0.004565 -0.026615 0
-0.004756 -0.030626 0
-0.004940 -0.035064 0
-0.005124 -0.039968 0
-0.005314 -0.045379 0
-0.005520 -0.051347 0
-0.005754 -0.057931 0
-0.006027 -0.065201 0
-0.006357 -0.073241 0
-0.006762 -0.082151 0
-0.007265 -0.092048 0
-0.007893 -0.103069 0
-0.008678 -0.115367 0
-0.009655 -0.129110 0
-0.010867 -0.144471 0
-0.012357 -0.161607 0
-0.014170 -0.180639 0
-0.016349 -0.201600 0
-0.018923 -0.224376 0
-0.021897 -0.248621 0
-0.025233 -0.273650 0
-0.028833 -0.298350 0
-0.032518 -0.321117 0
-0.036019 -0.339907 0
-0.038995 -0.352441 0
-0.041077 -0.356585 0
-0.041939 -0.350838 0
-0.041384 -0.334748 0
-0.039393 -0.309064 0
-0.036123 -0.275531 0
-0.031853 -0.236432 0
-0.026908 -0.194059 0
-0.021589 -0.150316 0
-0.016130 -0.106521 0
-0.010681 -0.063374 0
-0.005307 -0.021006 0
0.000000 0.000000 0
0.000000 0.000000 0
-0.000466 -0.000781 0
-0.000927 -0.001600 0
-0.001377 -0.002492 0
-0.001811 -0.003491 0
-0.002226 -0.004629 0
-0.002617 -0.005936 0
-0.002983 -0.007437 0
-0.003321 -0.009159 0
-0.003630 -0.011125 0
-0.003910 -0.013355 0
-0.004161 -0.015873 0
-0.004384 -0.018698 0
-0.004582 -0.021854 0
-0.004758 -0.025365 0
-0.004915 -0.029257 0
-0.005059 -0.033560 0
-0.005195 -0.038309 0
-0.005332 -0.043546 0
-0.005479 -0.049320 0
-0.005648 -0.055691 0
-0.005851 -0.062731 0
-0.006106 -0.070527 0
-0.006432 -0.079182 0
-0.006853 -0.088819 0
-0.007397 -0.099582 0
-0.008097 -0.111634 0
-0.008991 -0.125153 0
-0.010122 -0.140330 0
-0.011541 -0.157348 0
-0.013297 -0.176356 0
-0.015439 -0.197432 0
-0.018007 -0.220515 0
-0.021018 -0.245320 0
-0.024448 -0.271225 0
-0.028212 -0.297165 0
-0.032138 -0.321542 0
-0.035956 -0.342252 0
-0.039304 -0.356862 0
-0.041775 -0.363000 0
-0.042995 -0.358890 0
-0.042714 -0.343840 0
-0.040878 -0.318473 0
-0.037633 -0.284555 0
-0.033273 -0.244508 0
-0.028153 -0.200818 0
-0.022606 -0.155574 0
-0.016895 -0.110231 0
-0.011187 -0.065565 0
-0.005558 -0.021728 0
0.000000 0.000000 0
0.000000 0.000000 0
-0.000513 -0.000629 0
-0.001020 -0.001301 0
-0.001513 -0.002052 0
-0.001986 -0.002921 0
-0.002435 -0.003940 0
-0.002854 -0.005138 0
-0.003242 -0.006540 0
-0.003595 -0.008171 0
-0.003912 -0.010050 0
-0.004192 -0.012197 0
-0.004437 -0.014629 0
-0.004646 -0.017366 0
-0.004822 -0.020426 0
-0.004968 -0.023831 0
-0.005089 -0.027605 0
-0.005189 -0.031775 0
-0.005275 -0.036376 0
-0.005355 -0.041448 0
-0.005439 -0.047040 0
-0.005539 -0.053213 0
-0.005669 -0.060038 0
-0.005845 -0.067606 0
-0.006089 -0.076022 0
-0.006424 -0.085414 0
-0.006879 -0.095929 0
-0.007488 -0.107739 0
-0.008292 -0.121033 0
-0.009338 -0.136017 0
-0.010677 -0.152895 0
-0.012365 -0.171849 0
-0.014460 -0.192999 0
-0.017010 -0.216338 0
-0.020047 -0.241648 0
-0.023561 -0.268378 0
-0.027481 -0.295523 0
-0.031649 -0.321509 0
-0.035792 -0.344185 0
-0.039534 -0.360976 0
-0.042429 -0.369267 0
-0.044048 -0.366981 0
-0.044083 -0.353148 0
-0.042436 -0.328231 0
-0.039238 -0.293996 0
-0.034793 -0.253001 0
-0.029490 -0.207945 0
-0.023700 -0.161122 0
-0.017716 -0.114143 0
-0.011730 -0.067871 0
-0.005827 -0.022487 0
0.000000 0.000000 0
0.000000 0.000000 0
-0.000566 -0.000436 0
-0.001124 -0.000920 0
-0.001665 -0.001497 0
-0.002182 -0.002204 0
-0.002669 -0.003076 0
-0.003121 -0.004142 0
-0.003533 -0.005428 0
-0.003902 -0.006952 0
-0.004228 -0.008734 0
-0.004509 -0.010789 0
-0.004746 -0.013132 0
-0.004939 -0.015778 0
-0.005091 -0.018743 0
-0.005206 -0.022045 0
-0.005287 -0.025706 0
-0.005340 -0.029751 0
-0.005372 -0.034214 0
-0.005392 -0.039132 0
-0.005410 -0.044555 0
-0.005437 -0.050543 0
-0.005488 -0.057169 0
-0.005582 -0.064524 0
-0.005738 -0.072714 0
-0.005981 -0.081870 0
-0.006342 -0.092144 0
-0.006855 -0.103713 0
-0.007563 -0.116776 0
-0.008514 -0.131552 0
-0.009764 -0.148267 0
-0.011375 -0.167133 0
-0.013411 -0.188310 0
-0.015931 -0.211850 0
-0.018980 -0.237604 0
-0.022565 -0.265100 0
-0.026633 -0.293404 0
-0.031039 -0.320984 0
-0.035516 -0.345662 0
-0.039672 -0.364732 0
-0.043026 -0.375336 0
-0.045089 -0.375072 0
-0.045488 -0.362656 0
-0.044071 -0.338345 0
-0.040943 -0.303878 0
-0.036423 -0.261948 0
-0.030931 -0.215478 0
-0.024881 -0.166994 0
-0.018604 -0.118283 0
-0.012316 -0.070311 0
-0.006116 -0.023290 0
0.000000 0.000000 0
0.000000 0.000000 0
-0.000627 -0.000196 0
-0.001243 -0.000451 0
-0.001840 -0.000813 0
-0.002407 -0.001325 0
-0.002937 -0.002024 0
-0.003425 -0.002937 0
-0.003864 -0.004089 0
-0.004253 -0.005496 0
-0.004589 -0.007174 0
-0.004871 -0.009134 0
-0.005099 -0.011387 0
-0.005275 -0.013945 0
-0.005402 -0.016820 0
-0.005481 -0.020027 0
-0.005520 -0.023584 0
-0.005522 -0.027516 0
-0.005497 -0.031852 0
-0.005452 -0.036631 0
-0.005397 -0.041899 0
-0.005347 -0.047717 0
-0.005315 -0.054158 0
-0.005320 -0.061311 0
-0.005383 -0.069287 0
-0.005529 -0.078215 0
-0.005788 -0.088251 0
-0.006198 -0.099578 0
-0.006802 -0.112401 0
-0.007650 -0.126953 0
-0.008802 -0.143479 0
-0.010325 -0.162219 0
-0.012289 -0.183376 0
-0.014765 -0.207058 0
-0.017812 -0.233189 0
-0.021454 -0.261382 0
-0.025659 -0.290787 0
-0.030298 -0.319933 0
-0.035114 -0.346635 0
-0.039705 -0.368074 0
-0.043554 -0.381152 0
-0.046110 -0.383120 0
-0.046925 -0.372341 0
-0.045783 -0.348817 0
-0.042758 -0.314225 0
-0.038173 -0.271385 0
-0.032487 -0.223459 0
-0.026160 -0.173228 0
-0.019566 -0.122680 0
-0.012951 -0.072901 0
-0.006430 -0.024142 0
0.000000 0.000000 0
0.000000 0.000000 0
-0.000697 0.000098 0
-0.001381 0.000122 0
-0.002041 0.000017 0
-0.002666 -0.000266 0
-0.003247 -0.000763 0
-0.003776 -0.001504 0
-0.004248 -0.002508 0
-0.004659 -0.003791 0
-0.005007 -0.005361 0
-0.005290 -0.007228 0
-0.005510 -0.009396 0
-0.005667 -0.011873 0
-0.005765 -0.014667 0
-0.005807 -0.017789 0
-0.005799 -0.021256 0
-0.005746 -0.025087 0
-0.005657 -0.029312 0
-0.005542 -0.033965 0
-0.005410 -0.039094 0
-0.005276 -0.044756 0
-0.005155 -0.051025 0
-0.005064 -0.057990 0
-0.005027 -0.065759 0
-0.005068 -0.074466 0
-0.005220 -0.084267 0
-0.005518 -0.095348 0
-0.006009 -0.107922 0
-0.006745 -0.122233 0
-0.007789 -0.138542 0
-0.009211 -0.157120 0
-0.011091 -0.178207 0
-0.013510 -0.201969 0
-0.016538 -0.228404 0
-0.020222 -0.257218 0
-0.024550 -0.287657 0
-0.029414 -0.318326 0
-0.034571 -0.347058 0
-0.039616 -0.370943 0
-0.043996 -0.386650 0
-0.047096 -0.391072 0
-0.048387 -0.382170 0
-0.047574 -0.359642 0
-0.044688 -0.325058 0
-0.040056 -0.281349 0
-0.034171 -0.231929 0
-0.027549 -0.179862 0