# vtk DataFile Version 2.0
generated by CFD-lab course output (written by Tobias Neckel) 
ASCII

DATASET STRUCTURED_GRID
DIMENSIONS  51 51 1 
POINTS 2601 float

0.000000 0.000000 0
0.020000 0.000000 0
0.040000 0.000000 0
0.060000 0.000000 0
0.080000 0.000000 0
0.100000 0.000000 0
0.120000 0.000000 0
0.140000 0.000000 0
0.160000 0.000000 0
0.180000 0.000000 0
0.200000 0.000000 0
0.220000 0.000000 0
0.240000 0.000000 0
0.260000 0.000000 0
0.280000 0.000000 0
0.300000 0.000000 0
0.320000 0.000000 0
0.340000 0.000000 0
0.360000 0.000000 0
0.380000 0.000000 0
0.400000 0.000000 0
0.420000 0.000000 0
0.440000 0.000000 0
0.460000 0.000000 0
0.480000 0.000000 0
0.500000 0.000000 0
0.520000 0.000000 0
0.540000 0.000000 0
0.560000 0.000000 0
0.580000 0.000000 0
0.600000 0.000000 0
0.620000 0.000000 0
0.640000 0.000000 0
0.660000 0.000000 0
0.680000 0.000000 0
0.700000 0.000000 0
0.720000 0.000000 0
0.740000 0.000000 0
0.760000 0.000000 0
0.780000 0.000000 0
0.800000 0.000000 0
0.820000 0.000000 0
0.840000 0.000000 0
0.860000 0.000000 0
0.880000 0.000000 0
0.900000 0.000000 0
0.920000 0.000000 0
0.940000 0.000000 0
0.960000 0.000000 0
0.980000 0.000000 0
1.000000 0.000000 0
0.000000 0.020000 0
0.020000 0.020000 0
0.040000 0.020000 0
0.060000 0.020000 0
0.080000 0.020000 0
0.100000 0.020000 0
0.120000 0.020000 0
0.140000 0.020000 0
0.160000 0.020000 0
0.180000 0.020000 0
0.200000 0.020000 0
0.220000 0.020000 0
0.240000 0.020000 0
0.260000 0.020000 0
0.280000 0.020000 0
0.300000 0.020000 0
0.320000 0.020000 0
0.340000 0.020000 0
0.360000 0.020000 0
0.380000 0.020000 0
0.400000 0.020000 0
0.420000 0.020000 0
0.440000 0.020000 0
0.460000 0.020000 0
0.480000 0.020000 0
0.500000 0.020000 0
0.520000 0.020000 0
0.540000 0.020000 0
0.560000 0.020000 0
0.580000 0.020000 0
0.600000 0.020000 0
0.620000 0.020000 0
0.640000 0.020000 0
0.660000 0.020000 0
0.680000 0.020000 0
0.700000 0.020000 0
0.720000 0.020000 0
0.740000 0.020000 0
0.760000 0.020000 0
0.780000 0.020000 0
0.800000 0.020000 0
0.820000 0.020000 0
0.840000 0.020000 0
0.860000 0.020000 0
0.880000 0.020000 0
0.900000 0.020000 0
0.920000 0.020000 0
0.940000 0.020000 0
0.960000 0.020000 0
0.980000 0.020000 0
1.000000 0.020000 0
0.000000 0.040000 0
0.020000 0.040000 0
0.040000 0.040000 0
0.060000 0.040000 0
0.080000 0.040000 0
0.100000 0.040000 0
0.120000 0.040000 0
0.140000 0.040000 0
0.160000 0.040000 0
0.180000 0.040000 0
0.200000 0.040000 0
0.220000 0.040000 0
0.240000 0.040000 0
0.260000 0.040000 0
0.280000 0.040000 0
0.300000 0.040000 0
0.320000 0.040000 0
0.340000 0.040000 0
0.360000 0.040000 0
0.380000 0.040000 0
0.400000 0.040000 0
0.420000 0.040000 0
0.440000 0.040000 0
0.460000 0.040000 0
0.480000 0.040000 0
0.500000 0.040000 0
0.520000 0.040000 0
0.540000 0.040000 0
0.560000 0.040000 0
0.580000 0.040000 0
0.600000 0.040000 0
0.620000 0.040000 0
0.640000 0.040000 0
0.660000 0.040000 0
0.680000 0.040000 0
0.700000 0.040000 0
0.720000 0.040000 0
0.740000 0.040000 0
0.760000 0.040000 0
0.780000 0.040000 0
0.800000 0.040000 0
0.820000 0.040000 0
0.840000 0.040000 0
0.860000 0.040000 0
0.880000 0.040000 0
0.900000 0.040000 0
0.920000 0.040000 0
0.940000 0.040000 0
0.960000 0.040000 0
0.980000 0.040000 0
1.000000 0.040000 0
0.000000 0.060000 0
0.020000 0.060000 0
0.040000 0.060000 0
0.060000 0.060000 0
0.080000 0.060000 0
0.100000 0.060000 0
0.120000 0.060000 0
0.140000 0.060000 0
0.160000 0.060000 0
0.180000 0.060000 0
0.200000 0.060000 0
0.220000 0.060000 0
0.240000 0.060000 0
0.260000 0.060000 0
0.280000 0.060000 0
0.300000 0.060000 0
0.320000 0.060000 0
0.340000 0.060000 0
0.360000 0.060000 0
0.380000 0.060000 0
0.400000 0.060000 0
0.420000 0.060000 0
0.440000 0.060000 0
0.460000 0.060000 0
0.480000 0.060000 0
0.500000 0.060000 0
0.520000 0.060000 0
0.540000 0.060000 0
0.560000 0.060000 0
0.580000 0.060000 0
0.600000 0.060000 0
0.620000 0.060000 0
0.640000 0.060000 0
0.660000 0.060000 0
0.680000 0.060000 0
0.700000 0.060000 0
0.720000 0.060000 0
0.740000 0.060000 0
0.760000 0.060000 0
0.780000 0.060000 0
0.800000 0.060000 0
0.820000 0.060000 0
0.840000 0.060000 0
0.860000 0.060000 0
0.880000 0.060000 0
0.900000 0.060000 0
0.920000 0.060000 0
0.940000 0.060000 0
0.960000 0.060000 0
0.980000 0.060000 0
1.000000 0.060000 0
0.000000 0.080000 0
0.020000 0.080000 0
0.040000 0.080000 0
0.060000 0.080000 0
0.080000 0.080000 0
0.100000 0.080000 0
0.120000 0.080000 0
0.140000 0.080000 0
0.160000 0.080000 0
0.180000 0.080000 0
0.200000 0.080000 0
0.220000 0.080000 0
0.240000 0.080000 0
0.260000 0.080000 0
0.280000 0.080000 0
0.300000 0.080000 0
0.320000 0.080000 0
0.340000 0.080000 0
0.360000 0.080000 0
0.380000 0.080000 0
0.400000 0.080000 0
0.420000 0.080000 0
0.440000 0.080000 0
0.460000 0.080000 0
0.480000 0.080000 0
0.500000 0.080000 0
0.520000 0.080000 0
0.540000 0.080000 0
0.560000 0.080000 0
0.580000 0.080000 0
0.600000 0.080000 0
0.620000 0.080000 0
0.640000 0.080000 0
0.660000 0.080000 0
0.680000 0.080000 0
0.700000 0.080000 0
0.720000 0.080000 0
0.740000 0.080000 0
0.760000 0.080000 0
0.780000 0.080000 0
0.800000 0.080000 0
0.820000 0.080000 0
0.840000 0.080000 0
0.860000 0.080000 0
0.880000 0.080000 0
0.900000 0.080000 0
0.920000 0.080000 0
0.940000 0.080000 0
0.960000 0.080000 0
0.980000 0.080000 0
1.000000 0.080000 0
0.000000 0.100000 0
0.020000 0.100000 0
0.040000 0.100000 0
0.060000 0.100000 0
0.080000 0.100000 0
0.100000 0.100000 0
0.120000 0.100000 0
0.140000 0.100000 0
0.160000 0.100000 0
0.180000 0.100000 0
0.200000 0.100000 0
0.220000 0.100000 0
0.240000 0.100000 0
0.260000 0.100000 0
0.280000 0.100000 0
0.300000 0.100000 0
0.320000 0.100000 0
0.340000 0.100000 0
0.360000 0.100000 0
0.380000 0.100000 0
0.400000 0.100000 0
0.420000 0.100000 0
0.440000 0.100000 0
0.460000 0.100000 0
0.480000 0.100000 0
0.500000 0.100000 0
0.520000 0.100000 0
0.540000 0.100000 0
0.560000 0.100000 0
0.580000 0.100000 0
0.600000 0.100000 0
0.620000 0.100000 0
0.640000 0.100000 0
0.660000 0.100000 0
0.680000 0.100000 0
0.700000 0.100000 0
0.720000 0.100000 0
0.740000 0.100000 0
0.760000 0.100000 0
0.780000 0.100000 0
0.800000 0.100000 0
0.820000 0.100000 0
0.840000 0.100000 0
0.860000 0.100000 0
0.880000 0.100000 0
0.900000 0.100000 0
0.920000 0.100000 0
0.940000 0.100000 0
0.960000 0.100000 0
0.980000 0.100000 0
1.000000 0.100000 0
0.000000 0.120000 0
0.020000 0.120000 0
0.040000 0.120000 0
0.060000 0.120000 0
0.080000 0.120000 0
0.100000 0.120000 0
0.120000 0.120000 0
0.140000 0.120000 0
0.160000 0.120000 0
0.180000 0.120000 0
0.200000 0.120000 0
0.220000 0.120000 0
0.240000 0.120000 0
0.260000 0.120000 0
0.280000 0.120000 0
0.300000 0.120000 0
0.320000 0.120000 0
0.340000 0.120000 0
0.360000 0.120000 0
0.380000 0.120000 0
0.400000 0.120000 0
0.420000 0.120000 0
0.440000 0.120000 0
0.460000 0.120000 0
0.480000 0.120000 0
0.500000 0.120000 0
0.520000 0.120000 0
0.540000 0.120000 0
0.560000 0.120000 0
0.580000 0.120000 0
0.600000 0.120000 0
0.620000 0.120000 0
0.640000 0.120000 0
0.660000 0.120000 0
0.680000 0.120000 0
0.700000 0.120000 0
0.720000 0.120000 0
0.740000 0.120000 0
0.760000 0.120000 0
0.780000 0.120000 0
0.800000 0.120000 0
0.820000 0.120000 0
0.840000 0.120000 0
0.860000 0.120000 0
0.880000 0.120000 0
0.900000 0.120000 0
0.920000 0.120000 0
0.940000 0.120000 0
0.960000 0.120000 0
0.980000 0.120000 0
1.000000 0.120000 0
0.000000 0.140000 0
0.020000 0.140000 0
0.040000 0.140000 0
0.060000 0.140000 0
0.080000 0.140000 0
0.100000 0.140000 0
0.120000 0.140000 0
0.140000 0.140000 0
0.160000 0.140000 0
0.180000 0.140000 0
0.200000 0.140000 0
0.220000 0.140000 0
0.240000 0.140000 0
0.260000 0.140000 0
0.280000 0.140000 0
0.300000 0.140000 0
0.320000 0.140000 0
0.340000 0.140000 0
0.360000 0.140000 0
0.380000 0.140000 0
0.400000 0.140000 0
0.420000 0.140000 0
0.440000 0.140000 0
0.460000 0.140000 0
0.480000 0.140000 0
0.500000 0.140000 0
0.520000 0.140000 0
0.540000 0.140000 0
0.560000 0.140000 0
0.580000 0.140000 0
0.600000 0.140000 0
0.620000 0.140000 0
0.640000 0.140000 0
0.660000 0.140000 0
0.680000 0.140000 0
0.700000 0.140000 0
0.720000 0.140000 0
0.740000 0.140000 0
0.760000 0.140000 0
0.780000 0.140000 0
0.800000 0.140000 0
0.820000 0.140000 0
0.840000 0.140000 0
0.860000 0.140000 0
0.880000 0.140000 0
0.900000 0.140000 0
0.920000 0.140000 0
0.940000 0.140000 0
0.960000 0.140000 0
0.980000 0.140000 0
1.000000 0.140000 0
0.000000 0.160000 0
0.020000 0.160000 0
0.040000 0.160000 0
0.060000 0.160000 0
0.080000 0.160000 0
0.100000 0.160000 0
0.120000 0.160000 0
0.140000 0.160000 0
0.160000 0.160000 0
0.180000 0.160000 0
0.200000 0.160000 0
0.220000 0.160000 0
0.240000 0.160000 0
0.260000 0.160000 0
0.280000 0.160000 0
0.300000 0.160000 0
0.320000 0.160000 0
0.340000 0.160000 0
0.360000 0.160000 0
0.380000 0.160000 0
0.400000 0.160000 0
0.420000 0.160000 0
0.440000 0.160000 0
0.460000 0.160000 0
0.480000 0.160000 0
0.500000 0.160000 0
0.520000 0.160000 0
0.540000 0.160000 0
0.560000 0.160000 0
0.580000 0.160000 0
0.600000 0.160000 0
0.620000 0.160000 0
0.640000 0.160000 0
0.660000 0.160000 0
0.680000 0.160000 0
0.700000 0.160000 0
0.720000 0.160000 0
0.740000 0.160000 0
0.760000 0.160000 0
0.780000 0.160000 0
0.800000 0.160000 0
0.820000 0.160000 0
0.840000 0.160000 0
0.860000 0.160000 0
0.880000 0.160000 0
0.900000 0.160000 0
0.920000 0.160000 0
0.940000 0.160000 0
0.960000 0.160000 0
0.980000 0.160000 0
1.000000 0.160000 0
0.000000 0.180000 0
0.020000 0.180000 0
0.040000 0.180000 0
0.060000 0.180000 0
0.080000 0.180000 0
0.100000 0.180000 0
0.120000 0.180000 0
0.140000 0.180000 0
0.160000 0.180000 0
0.180000 0.180000 0
0.200000 0.180000 0
0.220000 0.180000 0
0.240000 0.180000 0
0.260000 0.180000 0
0.280000 0.180000 0
0.300000 0.180000 0
0.320000 0.180000 0
0.340000 0.180000 0
0.360000 0.180000 0
0.380000 0.180000 0
0.400000 0.180000 0
0.420000 0.180000 0
0.440000 0.180000 0
0.460000 0.180000 0
0.480000 0.180000 0
0.500000 0.180000 0
0.520000 0.180000 0
0.540000 0.180000 0
0.560000 0.180000 0
0.580000 0.180000 0
0.600000 0.180000 0
0.620000 0.180000 0
[...]
POINT_DATA 2601 

VECTORS velocity float
0.000000 0.000000 0
0.000000 0.000000 0
0.000000 0.000000 0
0.000000 0.000000 0
0.000000 0.000000 0
0.000000 0.000000 0
0.000000 0.000000 0
0.000000 0.000000 0
0.000000 0.000000 0
0.000000 0.000000 0
0.000000 0.000000 0
0.000000 0.000000 0
0.000000 0.000000 0
0.000000 0.000000 0
0.000000 0.000000 0
0.000000 0.000000 0
0.000000 0.000000 0
0.000000 0.000000 0
0.000000 0.000000 0
0.000000 0.000000 0
0.000000 0.000000 0
0.000000 0.000000 0
0.000000 0.000000 0
0.000000 0.000000 0
0.000000 0.000000 0
0.000000 0.000000 0
0.000000 0.000000 0
0.000000 0.000000 0
0.000000 0.000000 0
0.000000 0.000000 0
0.000000 0.000000 0
0.000000 0.000000 0
0.000000 0.000000 0
0.000000 0.000000 0
0.000000 0.000000 0
0.000000 0.000000 0
0.000000 0.000000 0
0.000000 0.000000 0
-0.000000 0.000000 0
-0.000000 0.000000 0
-0.000000 0.000000 0
-0.000000 0.000000 0
-0.000000 0.000000 0
-0.000000 0.000000 0
-0.000000 0.000000 0
-0.000000 0.000000 0
-0.000000 0.000000 0
-0.000000 0.000000 0
-0.000000 0.000000 0
-0.000000 0.000000 0
0.000000 0.000000 0
0.000000 0.000000 0
-0.000036 -0.000177 0
-0.000071 -0.000360 0
-0.000108 -0.000553 0
-0.000144 -0.000763 0
-0.000182 -0.000994 0
-0.000220 -0.001254 0
-0.000260 -0.001549 0
-0.000301 -0.001888 0
-0.000345 -0.002280 0
-0.000392 -0.002735 0
-0.000442 -0.003266 0
-0.000498 -0.003889 0
-0.000560 -0.004622 0
-0.000631 -0.005486 0
-0.000712 -0.006509 0
-0.000806 -0.007720 0
-0.000918 -0.009161 0
-0.001050 -0.010876 0
-0.001209 -0.012922 0
-0.001401 -0.015367 0
-0.001635 -0.018290 0
-0.001919 -0.021787 0
-0.002265 -0.025967 0
-0.002688 -0.030954 0
-0.003202 -0.036882 0
-0.003824 -0.043889 0
-0.004573 -0.052103 0
-0.005462 -0.061621 0
-0.006505 -0.072479 0
-0.007703 -0.084606 0
-0.009045 -0.097774 0
-0.010498 -0.111552 0
-0.012003 -0.125260 0
-0.013475 -0.137971 0
-0.014797 -0.148568 0
-0.015840 -0.155868 0
-0.016475 -0.158827 0
-0.016603 -0.156766 0
-0.016173 -0.149558 0
-0.015206 -0.137711 0
-0.013786 -0.122287 0
-0.012049 -0.104688 0
-0.010150 -0.086365 0
-0.008237 -0.068567 0
-0.006423 -0.052173 0
-0.004780 -0.037645 0
-0.003337 -0.025062 0
-0.002087 -0.014201 0
-0.000995 -0.004578 0
0.000000 0.000000 0
0.000000 0.000000 0
-0.000071 -0.000349 0
-0.000142 -0.000709 0
-0.000214 -0.001089 0
-0.000287 -0.001501 0
-0.000361 -0.001955 0
-0.000437 -0.002465 0
-0.000516 -0.003044 0
-0.000597 -0.003707 0
-0.000683 -0.004472 0
-0.000774 -0.005360 0
-0.000873 -0.006393 0
-0.000981 -0.007602 0
-0.001101 -0.009018 0
-0.001236 -0.010683 0
-0.001391 -0.012642 0
-0.001570 -0.014954 0
-0.001779 -0.017684 0
-0.002026 -0.020913 0
-0.002321 -0.024735 0
-0.002673 -0.029259 0
-0.003097 -0.034612 0
-0.003608 -0.040937 0
-0.004224 -0.048391 0
-0.004965 -0.057141 0
-0.005853 -0.067355 0
-0.006911 -0.079183 0
-0.008160 -0.092739 0
-0.009617 -0.108065 0
-0.011290 -0.125093 0
-0.013176 -0.143599 0
-0.015246 -0.163153 0
-0.017451 -0.183084 0
-0.019704 -0.202460 0
-0.021888 -0.220103 0
-0.023852 -0.234664 0
-0.025428 -0.244747 0
-0.026445 -0.249096 0
-0.026761 -0.246815 0
-0.026290 -0.237571 0
-0.025023 -0.221720 0
-0.023040 -0.200304 0
-0.020497 -0.174904 0
-0.017597 -0.147363 0
-0.014554 -0.119478 0
-0.011556 -0.092726 0
-0.008741 -0.068088 0
-0.006188 -0.045994 0
-0.003914 -0.026344 0
-0.001881 -0.008543 0
0.000000 0.000000 0
0.000000 0.000000 0
-0.000106 -0.000510 0
-0.000212 -0.001035 0
-0.000320 -0.001590 0
-0.000428 -0.002191 0
-0.000538 -0.002853 0
-0.000650 -0.003595 0
-0.000765 -0.004435 0
-0.000885 -0.005395 0
-0.001009 -0.006501 0
-0.001142 -0.007779 0
-0.001283 -0.009262 0
-0.001437 -0.010989 0
-0.001606 -0.013003 0
-0.001796 -0.015357 0
-0.002011 -0.018109 0
-0.002257 -0.021332 0
-0.002542 -0.025107 0
-0.002876 -0.029529 0
-0.003269 -0.034706 0
-0.003734 -0.040759 0
-0.004287 -0.047822 0
-0.004943 -0.056038 0
-0.005723 -0.065555 0
-0.006646 -0.076517 0
-0.007734 -0.089052 0
-0.009008 -0.103252 0
-0.010485 -0.119158 0
-0.012177 -0.136725 0
-0.014089 -0.155800 0
-0.016209 -0.176087 0
-0.018508 -0.197116 0
-0.020934 -0.218223 0
-0.023405 -0.238532 0
-0.025807 -0.256962 0
-0.027996 -0.272275 0
-0.029802 -0.283161 0
-0.031052 -0.288383 0
-0.031585 -0.286966 0
-0.031290 -0.278395 0
-0.030124 -0.262757 0
-0.028131 -0.240792 0
-0.025438 -0.213812 0
-0.022231 -0.183506 0
-0.018730 -0.151676 0
-0.015147 -0.119970 0
-0.011657 -0.089659 0
-0.008379 -0.061491 0
-0.005366 -0.035629 0
-0.002602 -0.011629 0
0.000000 0.000000 0
0.000000 0.000000 0
-0.000140 -0.000655 0
-0.000281 -0.001330 0
-0.000423 -0.002042 0
-0.000566 -0.002812 0
-0.000710 -0.003660 0
-0.000857 -0.004608 0
-0.001006 -0.005679 0
-0.001160 -0.006900 0
-0.001320 -0.008301 0
-0.001488 -0.009915 0
-0.001666 -0.011779 0
-0.001857 -0.013938 0
-0.002066 -0.016441 0
-0.002297 -0.019346 0
-0.002556 -0.022717 0
-0.002849 -0.026630 0
-0.003185 -0.031168 0
-0.003574 -0.036427 0
-0.004025 -0.042508 0
-0.004553 -0.049525 0
-0.005171 -0.057595 0
-0.005896 -0.066837 0
-0.006745 -0.077366 0
-0.007737 -0.089285 0
-0.008890 -0.102676 0
-0.010222 -0.117583 0
-0.011748 -0.134003 0
-0.013479 -0.151868 0
-0.015419 -0.171021 0
-0.017561 -0.191199 0
-0.019882 -0.212001 0
-0.022339 -0.232864 0
-0.024862 -0.253028 0
-0.027347 -0.271529 0
-0.029659 -0.287208 0
-0.031629 -0.298786 0
-0.033077 -0.304992 0
-0.033828 -0.304754 0
-0.033748 -0.297412 0
-0.032772 -0.282875 0
-0.030916 -0.261690 0
-0.028282 -0.234971 0
-0.025039 -0.204229 0
-0.021391 -0.171137 0
-0.017549 -0.137299 0
-0.013698 -0.104038 0
-0.009976 -0.072244 0
-0.006460 -0.042271 0
-0.003157 -0.013874 0
0.000000 0.000000 0
0.000000 0.000000 0
-0.000174 -0.000781 0
-0.000349 -0.001584 0
-0.000524 -0.002432 0
-0.000700 -0.003347 0
-0.000877 -0.004353 0
-0.001056 -0.005476 0
-0.001237 -0.006742 0
-0.001422 -0.008182 0
-0.001612 -0.009826 0
-0.001810 -0.011713 0
-0.002017 -0.013882 0
-0.002237 -0.016378 0
-0.002475 -0.019254 0
-0.002734 -0.022566 0
-0.003020 -0.026379 0
-0.003341 -0.030764 0
-0.003703 -0.035799 0
-0.004116 -0.041569 0
-0.004591 -0.048165 0
-0.005139 -0.055680 0
-0.005774 -0.064210 0
-0.006510 -0.073849 0
-0.007363 -0.084683 0
-0.008349 -0.096787 0
-0.009487 -0.110221 0
-0.010793 -0.125015 0
-0.012284 -0.141170 0
-0.013972 -0.158640 0
-0.015867 -0.177317 0
-0.017969 -0.197008 0
-0.020265 -0.217401 0
-0.022722 -0.238026 0
-0.025282 -0.258211 0
-0.027848 -0.277050 0
-0.030287 -0.293401 0
-0.032430 -0.305950 0
-0.034082 -0.313339 0
-0.035053 -0.314373 0
-0.035187 -0.308251 0
-0.034396 -0.294757 0
-0.032681 -0.274333 0
-0.030130 -0.248013 0
-0.026903 -0.217236 0
-0.023196 -0.183605 0
-0.019217 -0.148664 0
-0.015151 -0.113708 0
-0.011141 -0.079652 0
-0.007276 -0.046939 0
-0.003578 -0.015471 0
0.000000 0.000000 0
0.000000 0.000000 0
-0.000208 -0.000883 0
-0.000416 -0.001791 0
-0.000623 -0.002748 0
-0.000831 -0.003782 0
-0.001039 -0.004916 0
-0.001248 -0.006180 0
-0.001458 -0.007601 0
-0.001670 -0.009212 0
-0.001886 -0.011047 0
-0.002107 -0.013141 0
-0.002337 -0.015537 0
-0.002577 -0.018279 0
-0.002832 -0.021416 0
-0.003107 -0.025003 0
-0.003406 -0.029099 0
-0.003736 -0.033767 0
-0.004104 -0.039077 0
-0.004518 -0.045102 0
-0.004989 -0.051918 0
-0.005527 -0.059601 0
-0.006144 -0.068231 0
-0.006853 -0.077882 0
-0.007671 -0.088628 0
-0.008613 -0.100536 0
-0.009698 -0.113661 0
-0.010943 -0.128050 0
-0.012368 -0.143728 0
-0.013990 -0.160693 0
-0.015826 -0.178893 0
-0.017882 -0.198204 0
-0.020155 -0.218387 0
-0.022623 -0.239043 0
-0.025233 -0.259552 0
-0.027898 -0.279035 0
-0.030484 -0.296339 0
-0.032817 -0.310088 0
-0.034689 -0.318819 0
-0.035890 -0.321196 0
-0.036241 -0.316270 0
-0.035630 -0.303702 0
-0.034043 -0.283858 0
-0.031560 -0.257747 0
-0.028339 -0.226815 0
-0.024580 -0.192675 0
-0.020492 -0.156867 0
-0.016261 -0.120671 0
-0.012035 -0.084999 0
-0.007905 -0.050323 0
-0.003905 -0.016632 0
0.000000 0.000000 0
0.000000 0.000000 0
-0.000241 -0.000959 0
-0.000481 -0.001945 0
-0.000721 -0.002984 0
-0.000960 -0.004105 0
-0.001197 -0.005335 0
-0.001434 -0.006704 0
-0.001670 -0.008240 0
-0.001905 -0.009977 0
-0.002142 -0.011948 0
-0.002382 -0.014189 0
-0.002627 -0.016741 0
-0.002880 -0.019644 0
-0.003143 -0.022945 0
-0.003423 -0.026693 0
-0.003722 -0.030941 0
-0.004047 -0.035745 0
-0.004404 -0.041163 0
-0.004802 -0.047259 0
-0.005250 -0.054097 0
-0.005756 -0.061742 0
-0.006335 -0.070262 0
-0.006997 -0.079726 0
-0.007760 -0.090203 0
-0.008640 -0.101764 0
-0.009655 -0.114478 0
-0.010828 -0.128413 0
-0.012180 -0.143627 0
-0.013735 -0.160160 0
-0.015512 -0.178012 0
-0.017529 -0.197114 0
-0.019788 -0.217286 0
-0.022277 -0.238179 0
-0.024951 -0.259214 0
-0.027726 -0.279529 0
-0.030474 -0.297954 0
-0.033011 -0.313050 0
-0.035120 -0.323244 0
-0.036566 -0.327050 0
-0.037146 -0.323356 0
-0.036722 -0.311686 0
-0.035262 -0.292328 0
-0.032836 -0.266279 0
-0.029606 -0.235030 0
-0.025781 -0.200258 0
-0.021579 -0.163554 0
-0.017194 -0.126228 0
-0.012776 -0.089198 0
-0.008423 -0.052954 0
-0.004172 -0.017530 0
0.000000 0.000000 0
0.000000 0.000000 0
-0.000274 -0.001007 0
-0.000547 -0.002042 0
-0.000818 -0.003134 0
-0.001087 -0.004311 0
-0.001353 -0.005604 0
-0.001615 -0.007041 0
-0.001875 -0.008653 0
-0.002131 -0.010471 0
-0.002385 -0.012529 0
-0.002638 -0.014862 0
-0.002893 -0.017506 0
-0.003151 -0.020499 0
-0.003415 -0.023884 0
-0.003690 -0.027703 0
-0.003979 -0.032004 0
-0.004288 -0.036835 0
-0.004624 -0.042247 0
-0.004993 -0.048294 0
-0.005404 -0.055034 0
-0.005868 -0.062524 0
-0.006395 -0.070830 0
-0.007000 -0.080018 0
-0.007698 -0.090164 0
-0.008508 -0.101346 0
-0.009450 -0.113651 0
-0.010548 -0.127170 0
-0.011827 -0.141992 0
-0.013315 -0.158192 0
-0.015039 -0.175813 0
-0.017021 -0.194831 0
-0.019272 -0.215114 0
-0.021786 -0.236358 0
-0.024527 -0.258021 0
-0.027420 -0.279261 0
-0.030336 -0.298896 0
-0.033090 -0.315432 0
-0.035449 -0.327187 0
-0.037160 -0.332520 0
-0.037988 -0.330142 0
-0.037768 -0.319419 0
-0.036443 -0.300541 0
-0.034076 -0.274492 0
-0.030829 -0.242820 0
-0.026925 -0.207298 0
-0.022596 -0.169612 0
-0.018049 -0.131135 0
-0.013444 -0.092825 0
-0.008883 -0.055187 0
-0.004407 -0.018286 0
0.000000 0.000000 0
0.000000 0.000000 0
-0.000307 -0.001024 0
-0.000613 -0.002079 0
-0.000916 -0.003192 0
-0.001215 -0.004395 0
-0.001508 -0.005717 0
-0.001795 -0.007188 0
-0.002076 -0.008838 0
-0.002350 -0.010698 0
-0.002618 -0.012800 0
-0.002881 -0.015175 0
-0.003140 -0.017859 0
-0.003398 -0.020885 0
-0.003657 -0.024291 0
-0.003920 -0.028115 0
-0.004192 -0.032398 0
-0.004477 -0.037182 0
-0.004782 -0.042514 0
-0.005115 -0.048441 0
-0.005482 -0.055016 0
-0.005894 -0.062296 0
-0.006364 -0.070344 0
-0.006906 -0.079232 0
-0.007535 -0.089039 0
-0.008271 -0.099859 0
-0.009138 -0.111792 0
-0.010161 -0.124950 0
-0.011368 -0.139447 0
-0.012792 -0.155390 0
-0.014463 -0.172855 0
-0.016410 -0.191860 0
-0.018652 -0.212312 0
-0.021191 -0.233954 0
-0.024000 -0.256283 0
-0.027011 -0.278484 0
-0.030099 -0.299373 0
-0.033077 -0.317412 0
-0.035703 -0.330814 0
-0.037698 -0.337780 0
-0.038798 -0.336830 0
-0.038803 -0.327147 0
-0.037631 -0.308804 0
-0.035331 -0.282756 0
-0.032068 -0.250611 0
-0.028076 -0.214257 0
-0.023608 -0.175500 0
-0.018888 -0.135814 0
-0.014088 -0.096216 0
-0.009320 -0.057242 0
-0.004628 -0.018975 0
0.000000 0.000000 0
0.000000 0.000000 0
-0.000342 -0.001011 0
-0.000681 -0.002053 0
-0.001016 -0.003157 0
-0.001345 -0.004354 0
-0.001666 -0.005673 0
-0.001977 -0.007145 0
-0.002278 -0.008799 0
-0.002568 -0.010665 0
-0.002847 -0.012772 0
-0.003116 -0.015151 0
-0.003376 -0.017833 0
-0.003629 -0.020847 0
-0.003877 -0.024228 0
-0.004124 -0.028009 0
-0.004373 -0.032227 0
-0.004629 -0.036919 0
-0.004898 -0.042126 0
-0.005187 -0.047895 0
-0.005505 -0.054275 0
-0.005862 -0.061323 0
-0.006271 -0.069105 0
-0.006745 -0.077695 0
-0.007303 -0.087182 0
-0.007965 -0.097668 0
-0.008755 -0.109269 0
-0.009702 -0.122113 0
-0.010837 -0.136335 0
-0.012195 -0.152068 0
-0.013812 -0.169417 0
-0.015721 -0.188436 0
-0.017951 -0.209075 0
-0.020510 -0.231120 0
-0.023383 -0.254115 0
-0.026509 -0.277280 0
-0.029770 -0.299443 0
-0.032980 -0.319029 0
-0.035885 -0.334157 0
-0.038186 -0.342866 0
-0.039584 -0.343471 0
-0.039843 -0.334951 0
-0.038847 -0.317234 0
-0.036628 -0.291229 0
-0.033352 -0.258601 0
-0.029269 -0.221360 0
-0.024650 -0.181459 0
-0.019744 -0.140494 0
-0.014739 -0.099563 0
-0.009756 -0.059247 0
-0.004847 -0.019641 0
0.000000 0.000000 0
0.000000 0.000000 0
-0.000378 -0.000966 0
-0.000753 -0.001964 0
-0.001121 -0.003027 0
-0.001481 -0.004186 0
-0.001829 -0.005471 0
-0.002164 -0.006913 0
-0.002485 -0.008540 0
-0.002789 -0.010381 0
-0.003078 -0.012464 0
-0.003351 -0.014814 0
-0.003609 -0.017461 0
-0.003854 -0.020432 0
-0.004088 -0.023755 0
-0.004314 -0.027462 0
-0.004535 -0.031585 0
-0.004757 -0.036157 0
-0.004986 -0.041219 0
-0.005229 -0.046812 0
-0.005493 -0.052987 0
-0.005791 -0.059802 0
-0.006135 -0.067324 0
-0.006540 -0.075632 0
-0.007025 -0.084823 0
-0.007611 -0.095005 0
-0.008323 -0.106307 0
-0.009192 -0.118870 0
-0.010253 -0.132848 0
-0.011542 -0.148394 0
-0.013100 -0.165641 0
-0.014967 -0.184676 0
-0.017177 -0.205490 0
-0.019750 -0.227920 0
-0.022679 -0.251559 0
-0.025915 -0.275672 0
-0.029349 -0.299109 0
-0.032796 -0.320275 0
-0.035994 -0.337201 0
-0.038622 -0.347766 0
-0.040346 -0.350064 0
-0.040889 -0.342850 0
-0.040098 -0.325876 0
-0.037981 -0.299984 0
-0.034701 -0.266886 0
-0.030523 -0.228726 0
-0.025746 -0.187617 0
-0.020640 -0.145300 0
-0.015416 -0.102975 0
-0.010207 -0.061275 0
-0.005072 -0.020313 0
0.000000 0.000000 0
0.000000 0.000000 0
-0.000417 -0.000887 0
-0.000829 -0.001808 0
-0.001233 -0.002798 0
-0.001626 -0.003888 0
-0.002003 -0.005110 0
-0.002362 -0.006494 0
-0.002702 -0.008068 0
-0.003021 -0.009857 0
-0.003318 -0.011889 0
-0.003593 -0.014186 0
-0.003847 -0.016775 0
-0.004082 -0.019679 0
-0.004298 -0.022925 0
-0.004500 -0.026538 0
-0.004691 -0.030549 0
-0.004876 -0.034990 0
-0.005061 -0.039896 0
-0.005253 -0.045311 0
-0.005461 -0.051284 0
-0.005698 -0.057873 0
-0.005974 -0.065149 0
-0.006308 -0.073195 0
-0.006716 -0.082111 0
-0.007223 -0.092014 0
-0.007855 -0.103041 0
-0.008644 -0.115345 0
-0.009625 -0.129095 0
-0.010841 -0.144460 0
-0.012335 -0.161602 0
-0.014153 -0.180638 0
-0.016335 -0.201603 0
-0.018913 -0.224383 0
-0.021889 -0.248629 0
-0.025228 -0.273660 0
-0.028831 -0.298360 0
-0.032518 -0.321126 0
-0.036021 -0.339915 0
-0.038998 -0.352446 0
-0.041080 -0.356586 0
-0.041943 -0.350836 0
-0.041388 -0.334743 0
-0.039397 -0.309056 0
-0.036126 -0.275522 0
-0.031855 -0.236423 0
-0.026910 -0.194050 0
-0.021591 -0.150308 0
-0.016131 -0.106516 0
-0.010682 -0.063370 0
-0.005308 -0.021005 0
0.000000 0.000000 0
0.000000 0.000000 0
-0.000459 -0.000773 0
-0.000912 -0.001583 0
-0.001355 -0.002467 0
-0.001783 -0.003458 0
-0.002191 -0.004588 0
-0.002577 -0.005888 0
-0.002937 -0.007383 0
-0.003270 -0.009100 0
-0.003575 -0.011060 0
-0.003851 -0.013287 0
-0.004100 -0.015801 0
-0.004321 -0.018624 0
-0.004518 -0.021779 0
-0.004693 -0.025290 0
-0.004851 -0.029183 0
-0.004995 -0.033488 0
-0.005133 -0.038240 0
-0.005272 -0.043481 0
-0.005421 -0.049259 0
-0.005592 -0.055635 0
-0.005799 -0.062681 0
-0.006057 -0.070482 0
-0.006387 -0.079143 0
-0.006812 -0.088787 0
-0.007360 -0.099555 0
-0.008064 -0.111613 0
-0.008962 -0.125138 0
-0.010098 -0.140320 0
-0.011520 -0.157342 0
-0.013280 -0.176355 0
-0.015426 -0.197435 0
-0.017997 -0.220521 0
-0.021011 -0.245328 0
-0.024444 -0.271235 0
-0.028210 -0.297175 0
-0.032139 -0.321552 0
-0.035958 -0.342260 0
-0.039307 -0.356867 0
-0.041779 -0.363002 0
-0.042999 -0.358888 0
-0.042718 -0.343835 0
-0.040882 -0.318465 0
-0.037637 -0.284546 0
-0.033276 -0.244499 0
-0.028155 -0.200809 0
-0.022608 -0.155567 0
-0.016896 -0.110226 0
-0.011187 -0.065561 0
-0.005558 -0.021727 0
0.000000 0.000000 0
0.000000 0.000000 0
-0.000506 -0.000621 0
-0.001005 -0.001284 0
-0.001490 -0.002028 0
-0.001957 -0.002889 0
-0.002399 -0.003900 0
-0.002813 -0.005091 0
-0.003196 -0.006488 0
-0.003544 -0.008113 0
-0.003857 -0.009987 0
-0.004134 -0.012130 0
-0.004376 -0.014560 0
-0.004583 -0.017295 0
-0.004758 -0.020354 0
-0.004904 -0.023759 0
-0.005025 -0.027534 0
-0.005126 -0.031706 0
-0.005214 -0.036310 0
-0.005296 -0.041386 0
-0.005383 -0.046982 0
-0.005486 -0.053159 0
-0.005618 -0.059990 0
-0.005798 -0.067563 0
-0.006045 -0.075985 0
-0.006384 -0.085382 0
-0.006843 -0.095903 0
-0.007457 -0.107718 0
-0.008265 -0.121018 0
-0.009314 -0.136007 0
-0.010657 -0.152889 0
-0.012349 -0.171848 0
-0.014447 -0.193001 0
-0.017001 -0.216343 0
-0.020040 -0.241655 0
-0.023557 -0.268388 0
-0.027480 -0.295533 0
-0.031650 -0.321518 0
-0.035795 -0.344193 0
-0.039538 -0.360981 0
-0.042433 -0.369269 0
-0.044052 -0.366979 0
-0.044087 -0.353143 0
-0.042440 -0.328223 0
-0.039241 -0.293986 0
-0.034796 -0.252992 0
-0.029492 -0.207936 0
-0.023702 -0.161114 0
-0.017718 -0.114137 0
-0.011731 -0.067868 0
-0.005827 -0.022486 0
0.000000 0.000000 0
0.000000 0.000000 0
-0.000559 -0.000428 0
-0.001109 -0.000904 0
-0.001643 -0.001473 0
-0.002153 -0.002172 0
-0.002634 -0.003038 0
-0.003079 -0.004097 0
-0.003486 -0.005377 0
-0.003852 -0.006896 0
-0.004174 -0.008673 0
-0.004452 -0.010725 0
-0.004686 -0.013065 0
-0.004877 -0.015709 0
-0.005029 -0.018673 0
-0.005143 -0.021976 0
-0.005224 -0.025638 0
-0.005279 -0.029685 0
-0.005313 -0.034150 0
-0.005335 -0.039072 0
-0.005355 -0.044500 0
-0.005385 -0.050492 0
-0.005439 -0.057123 0
-0.005536 -0.064483 0
-0.005696 -0.072679 0
-0.005943 -0.081840 0
-0.006308 -0.092120 0
-0.006825 -0.103694 0
-0.007536 -0.116762 0
-0.008491 -0.131542 0
-0.009745 -0.148261 0
-0.011360 -0.167131 0
-0.013399 -0.188312 0
-0.015922 -0.211855 0
-0.018974 -0.237611 0
-0.022562 -0.265109 0
-0.026632 -0.293413 0
-0.031040 -0.320993 0
-0.035519 -0.345669 0
-0.039676 -0.364737 0
-0.043031 -0.375338 0
-0.045094 -0.375070 0
-0.045493 -0.362651 0
-0.044075 -0.338337 0
-0.040947 -0.303868 0
-0.036426 -0.261938 0
-0.030933 -0.215469 0
-0.024883 -0.166987 0
-0.018605 -0.118277 0
-0.012317 -0.070307 0
-0.006117 -0.023289 0
0.000000 0.000000 0
0.000000 0.000000 0
-0.000619 -0.000188 0
-0.001228 -0.000435 0
-0.001818 -0.000790 0
-0.002378 -0.001295 0
-0.002902 -0.001987 0
-0.003384 -0.002894 0
-0.003819 -0.004040 0
-0.004203 -0.005442 0
-0.004535 -0.007116 0
-0.004814 -0.009073 0
-0.005040 -0.011323 0
-0.005215 -0.013880 0
-0.005340 -0.016754 0
-0.005420 -0.019961 0
-0.005459 -0.023519 0
-0.005463 -0.027453 0
-0.005439 -0.031792 0
-0.005396 -0.036573 0
-0.005344 -0.041846 0
-0.005297 -0.047668 0
-0.005268 -0.054114 0
-0.005276 -0.061272 0
-0.005342 -0.069253 0
-0.005492 -0.078186 0
-0.005756 -0.088228 0
-0.006169 -0.099559 0
-0.006777 -0.112387 0
-0.007629 -0.126943 0
-0.008784 -0.143473 0
-0.010310 -0.162217 0
-0.012278 -0.183378 0
-0.014757 -0.207063 0
-0.017807 -0.233195 0
-0.021452 -0.261390 0
-0.025659 -0.290796 0
-0.030300 -0.319942 0
-0.035117 -0.346643 0
-0.039709 -0.368079 0
-0.043559 -0.381153 0
-0.046115 -0.383119 0
-0.046930 -0.372335 0
-0.045787 -0.348809 0
-0.042761 -0.314215 0
-0.038176 -0.271375 0
-0.032489 -0.223449 0
-0.026162 -0.173220 0
-0.019567 -0.122675 0
-0.012952 -0.072897 0
-0.006430 -0.024141 0
0.000000 0.000000 0
0.000000 0.000000 0
-0.000689 0.000105 0
-0.001366 0.000137 0
-0.002019 0.000039 0
-0.002638 -0.000237 0
-0.003212 -0.000728 0
-0.003736 -0.001462 0
-0.004203 -0.002461 0
-0.004610 -0.003739 0
-0.004954 -0.005306 0
-0.005235 -0.007169 0
-0.005452 -0.009335 0
-0.005608 -0.011810 0
-0.005705 -0.014604 0
-0.005747 -0.017726 0
-0.005740 -0.021194 0
-0.005688 -0.025027 0
-0.005601 -0.029254 0
-0.005488 -0.033911 0
-0.005359 -0.039043 0
-0.005228 -0.044710 0
-0.005109 -0.050983 0
-0.005022 -0.057952 0
-0.004988 -0.065727 0
-0.005033 -0.074438 0
-0.005188 -0.084244 0
-0.005491 -0.095329 0
-0.005985 -0.107908 0
-0.006725 -0.122223 0
-0.007772 -0.138537 0
-0.009198 -0.157117 0
-0.011081 -0.178208 0
-0.013502 -0.201973 0
-0.016534 -0.228411 0
-0.020220 -0.257226 0
-0.024550 -0.287666 0
-0.029416 -0.318335 0
-0.034575 -0.347065 0
-0.039620 -0.370948 0
-0.044001 -0.386652 0
-0.047102 -0.391071 0
-0.048392 -0.382165 0
-0.047578 -0.359635 0
-0.044692 -0.325049 0
-0.040059 -0.281339 0
-0.034174 -0.231920 0
-0.027551 -0.179854 0