# vtk DataFile Version 2.0
generated by CFD-lab course output (written by Tobias Neckel) 
ASCII

DATASET STRUCTURED_GRID
DIMENSIONS  51 51 1 
POINTS 2601 float

0.000000 0.000000 0
0.020000 0.000000 0
0.040000 0.000000 0
0.060000 0.000000 0
0.080000 0.000000 0
0.100000 0.000000 0
0.120000 0.000000 0
0.140000 0.000000 0
0.160000 0.000000 0
0.180000 0.000000 0
0.200000 0.000000 0
0.220000 0.000000 0
0.240000 0.000000 0
0.260000 0.000000 0
0.280000 0.000000 0
0.300000 0.000000 0
0.320000 0.000000 0
0.340000 0.000000 0
0.360000 0.000000 0
0.380000 0.000000 0
0.400000 0.000000 0
0.420000 0.000000 0
0.440000 0.000000 0
0.460000 0.000000 0
0.480000 0.000000 0
0.500000 0.000000 0
0.520000 0.000000 0
0.540000 0.000000 0
0.560000 0.000000 0
0.580000 0.000000 0
0.600000 0.000000 0
0.620000 0.000000 0
0.640000 0.000000 0
0.660000 0.000000 0
0.680000 0.000000 0
0.700000 0.000000 0
0.720000 0.000000 0
0.740000 0.000000 0
0.760000 0.000000 0
0.780000 0.000000 0
0.800000 0.000000 0
0.820000 0.000000 0
0.840000 0.000000 0
0.860000 0.000000 0
0.880000 0.000000 0
0.900000 0.000000 0
0.920000 0.000000 0
0.940000 0.000000 0
0.960000 0.000000 0
0.980000 0.000000 0
1.000000 0.000000 0
0.000000 0.020000 0
0.020000 0.020000 0
0.040000 0.020000 0
0.060000 0.020000 0
0.080000 0.020000 0
0.100000 0.020000 0
0.120000 0.020000 0
0.140000 0.020000 0
0.160000 0.020000 0
0.180000 0.020000 0
0.200000 0.020000 0
0.220000 0.020000 0
0.240000 0.020000 0
0.260000 0.020000 0
0.280000 0.020000 0
0.300000 0.020000 0
0.320000 0.020000 0
0.340000 0.020000 0
0.360000 0.020000 0
0.380000 0.020000 0
0.400000 0.020000 0
0.420000 0.020000 0
0.440000 0.020000 0
0.460000 0.020000 0
0.480000 0.020000 0
0.500000 0.020000 0
0.520000 0.020000 0
0.540000 0.020000 0
0.560000 0.020000 0
0.580000 0.020000 0
0.600000 0.020000 0
0.620000 0.020000 0
0.640000 0.020000 0
0.660000 0.020000 0
0.680000 0.020000 0
0.700000 0.020000 0
0.720000 0.020000 0
0.740000 0.020000 0
0.760000 0.020000 0
0.780000 0.020000 0
0.800000 0.020000 0
0.820000 0.020000 0
0.840000 0.020000 0
0.860000 0.020000 0
0.880000 0.020000 0
0.900000 0.020000 0
0.920000 0.020000 0
0.940000 0.020000 0
0.960000 0.020000 0
0.980000 0.020000 0
1.000000 0.020000 0
0.000000 0.040000 0
0.020000 0.040000 0
0.040000 0.040000 0
0.060000 0.040000 0
0.080000 0.040000 0
0.100000 0.040000 0
0.120000 0.040000 0
0.140000 0.040000 0
0.160000 0.040000 0
0.180000 0.040000 0
0.200000 0.040000 0
0.220000 0.040000 0
0.240000 0.040000 0
0.260000 0.040000 0
0.280000 0.040000 0
0.300000 0.040000 0
0.320000 0.040000 0
0.340000 0.040000 0
0.360000 0.040000 0
0.380000 0.040000 0
0.400000 0.040000 0
0.420000 0.040000 0
0.440000 0.040000 0
0.460000 0.040000 0
0.480000 0.040000 0
0.500000 0.040000 0
0.520000 0.040000 0
0.540000 0.040000 0
0.560000 0.040000 0
0.580000 0.040000 0
0.600000 0.040000 0
0.620000 0.040000 0
0.640000 0.040000 0
0.660000 0.040000 0
0.680000 0.040000 0
0.700000 0.040000 0
0.720000 0.040000 0
0.740000 0.040000 0
0.760000 0.040000 0
0.780000 0.040000 0
0.800000 0.040000 0
0.820000 0.040000 0
0.840000 0.040000 0
0.860000 0.040000 0
0.880000 0.040000 0
0.900000 0.040000 0
0.920000 0.040000 0
0.940000 0.040000 0
0.960000 0.040000 0
0.980000 0.040000 0
1.000000 0.040000 0
0.000000 0.060000 0
0.020000 0.060000 0
0.040000 0.060000 0
0.060000 0.060000 0
0.080000 0.060000 0
0.100000 0.060000 0
0.120000 0.060000 0
0.140000 0.060000 0
0.160000 0.060000 0
0.180000 0.060000 0
0.200000 0.060000 0
0.220000 0.060000 0
0.240000 0.060000 0
0.260000 0.060000 0
0.280000 0.060000 0
0.300000 0.060000 0
0.320000 0.060000 0
0.340000 0.060000 0
0.360000 0.060000 0
0.380000 0.060000 0
0.400000 0.060000 0
0.420000 0.060000 0
0.440000 0.060000 0
0.460000 0.060000 0
0.480000 0.060000 0
0.500000 0.060000 0
0.520000 0.060000 0
0.540000 0.060000 0
0.560000 0.060000 0
0.580000 0.060000 0
0.600000 0.060000 0
0.620000 0.060000 0
0.640000 0.060000 0
0.660000 0.060000 0
0.680000 0.060000 0
0.700000 0.060000 0
0.720000 0.060000 0
0.740000 0.060000 0
0.760000 0.060000 0
0.780000 0.060000 0
0.800000 0.060000 0
0.820000 0.060000 0
0.840000 0.060000 0
0.860000 0.060000 0
0.880000 0.060000 0
0.900000 0.060000 0
0.920000 0.060000 0
0.940000 0.060000 0
0.960000 0.060000 0
0.980000 0.060000 0
1.000000 0.060000 0
0.000000 0.080000 0
0.020000 0.080000 0
0.040000 0.080000 0
0.060000 0.080000 0
0.080000 0.080000 0
0.100000 0.080000 0
0.120000 0.080000 0
0.140000 0.080000 0
0.160000 0.080000 0
0.180000 0.080000 0
0.200000 0.080000 0
0.220000 0.080000 0
0.240000 0.080000 0
0.260000 0.080000 0
0.280000 0.080000 0
0.300000 0.080000 0
0.320000 0.080000 0
0.340000 0.080000 0
0.360000 0.080000 0
0.380000 0.080000 0
0.400000 0.080000 0
0.420000 0.080000 0
0.440000 0.080000 0
0.460000 0.080000 0
0.480000 0.080000 0
0.500000 0.080000 0
0.520000 0.080000 0
0.540000 0.080000 0
0.560000 0.080000 0
0.580000 0.080000 0
0.600000 0.080000 0
0.620000 0.080000 0
0.640000 0.080000 0
0.660000 0.080000 0
0.680000 0.080000 0
0.700000 0.080000 0
0.720000 0.080000 0
0.740000 0.080000 0
0.760000 0.080000 0
0.780000 0.080000 0
0.800000 0.080000 0
0.820000 0.080000 0
0.840000 0.080000 0
0.860000 0.080000 0
0.880000 0.080000 0
0.900000 0.080000 0
0.920000 0.080000 0
0.940000 0.080000 0
0.960000 0.080000 0
0.980000 0.080000 0
1.000000 0.080000 0
0.000000 0.100000 0
0.020000 0.100000 0
0.040000 0.100000 0
0.060000 0.100000 0
0.080000 0.100000 0
0.100000 0.100000 0
0.120000 0.100000 0
0.140000 0.100000 0
0.160000 0.100000 0
0.180000 0.100000 0
0.200000 0.100000 0
0.220000 0.100000 0
0.240000 0.100000 0
0.260000 0.100000 0
0.280000 0.100000 0
0.300000 0.100000 0
0.320000 0.100000 0
0.340000 0.100000 0
0.360000 0.100000 0
0.380000 0.100000 0
0.400000 0.100000 0
0.420000 0.100000 0
0.440000 0.100000 0
0.460000 0.100000 0
0.480000 0.100000 0
0.500000 0.100000 0
0.520000 0.100000 0
0.540000 0.100000 0
0.560000 0.100000 0
0.580000 0.100000 0
0.600000 0.100000 0
0.620000 0.100000 0
0.640000 0.100000 0
0.660000 0.100000 0
0.680000 0.100000 0
0.700000 0.100000 0
0.720000 0.100000 0
0.740000 0.100000 0
0.760000 0.100000 0
0.780000 0.100000 0
0.800000 0.100000 0
0.820000 0.100000 0
0.840000 0.100000 0
0.860000 0.100000 0
0.880000 0.100000 0
0.900000 0.100000 0
0.920000 0.100000 0
0.940000 0.100000 0
0.960000 0.100000 0
0.980000 0.100000 0
1.000000 0.100000 0
0.000000 0.120000 0
0.020000 0.120000 0
0.040000 0.120000 0
0.060000 0.120000 0
0.080000 0.120000 0
0.100000 0.120000 0
0.120000 0.120000 0
0.140000 0.120000 0
0.160000 0.120000 0
0.180000 0.120000 0
0.200000 0.120000 0
0.220000 0.120000 0
0.240000 0.120000 0
0.260000 0.120000 0
0.280000 0.120000 0
0.300000 0.120000 0
0.320000 0.120000 0
0.340000 0.120000 0
0.360000 0.120000 0
0.380000 0.120000 0
0.400000 0.120000 0
0.420000 0.120000 0
0.440000 0.120000 0
0.460000 0.120000 0
0.480000 0.120000 0
0.500000 0.120000 0
0.520000 0.120000 0
0.540000 0.120000 0
0.560000 0.120000 0
0.580000 0.120000 0
0.600000 0.120000 0
0.620000 0.120000 0
0.640000 0.120000 0
0.660000 0.120000 0
0.680000 0.120000 0
0.700000 0.120000 0
0.720000 0.120000 0
0.740000 0.120000 0
0.760000 0.120000 0
0.780000 0.120000 0
0.800000 0.120000 0
0.820000 0.120000 0
0.840000 0.120000 0
0.860000 0.120000 0
0.880000 0.120000 0
0.900000 0.120000 0
0.920000 0.120000 0
0.940000 0.120000 0
0.960000 0.120000 0
0.980000 0.120000 0
1.000000 0.120000 0
0.000000 0.140000 0
0.020000 0.140000 0
0.040000 0.140000 0
0.060000 0.140000 0
0.080000 0.140000 0
0.100000 0.140000 0
0.120000 0.140000 0
0.140000 0.140000 0
0.160000 0.140000 0
0.180000 0.140000 0
0.200000 0.140000 0
0.220000 0.140000 0
0.240000 0.140000 0
0.260000 0.140000 0
0.280000 0.140000 0
0.300000 0.140000 0
0.320000 0.140000 0
0.340000 0.140000 0
0.360000 0.140000 0
0.380000 0.140000 0
0.400000 0.140000 0
0.420000 0.140000 0
0.440000 0.140000 0
0.460000 0.140000 0
0.480000 0.140000 0
0.500000 0.140000 0
0.520000 0.140000 0
0.540000 0.140000 0
0.560000 0.140000 0
0.580000 0.140000 0
0.600000 0.140000 0
0.620000 0.140000 0
0.640000 0.140000 0
0.660000 0.140000 0
0.680000 0.140000 0
0.700000 0.140000 0
0.720000 0.140000 0
0.740000 0.140000 0
0.760000 0.140000 0
0.780000 0.140000 0
0.800000 0.140000 0
0.820000 0.140000 0
0.840000 0.140000 0
0.860000 0.140000 0
0.880000 0.140000 0
0.900000 0.140000 0
0.920000 0.140000 0
0.940000 0.140000 0
0.960000 0.140000 0
0.980000 0.140000 0
1.000000 0.140000 0
0.000000 0.160000 0
0.020000 0.160000 0
0.040000 0.160000 0
0.060000 0.160000 0
0.080000 0.160000 0
0.100000 0.160000 0
0.120000 0.160000 0
0.140000 0.160000 0
0.160000 0.160000 0
0.180000 0.160000 0
0.200000 0.160000 0
0.220000 0.160000 0
0.240000 0.160000 0
0.260000 0.160000 0
0.280000 0.160000 0
0.300000 0.160000 0
0.320000 0.160000 0
0.340000 0.160000 0
0.360000 0.160000 0
0.380000 0.160000 0
0.400000 0.160000 0
0.420000 0.160000 0
0.440000 0.160000 0
0.460000 0.160000 0
0.480000 0.160000 0
0.500000 0.160000 0
0.520000 0.160000 0
0.540000 0.160000 0
0.560000 0.160000 0
0.580000 0.160000 0
0.600000 0.160000 0
0.620000 0.160000 0
0.640000 0.160000 0
0.660000 0.160000 0
0.680000 0.160000 0
0.700000 0.160000 0
0.720000 0.160000 0
0.740000 0.160000 0
0.760000 0.160000 0
0.780000 0.160000 0
0.800000 0.160000 0
0.820000 0.160000 0
0.840000 0.160000 0
0.860000 0.160000 0
0.880000 0.160000 0
0.900000 0.160000 0
0.920000 0.160000 0
0.940000 0.160000 0
0.960000 0.160000 0
0.980000 0.160000 0
1.000000 0.160000 0
0.000000 0.180000 0
0.020000 0.180000 0
0.040000 0.180000 0
0.060000 0.180000 0
0.080000 0.180000 0
0.100000 0.180000 0
0.120000 0.180000 0
0.140000 0.180000 0
0.160000 0.180000 0
0.180000 0.180000 0
0.200000 0.180000 0
0.220000 0.180000 0
0.240000 0.180000 0
0.260000 0.180000 0
0.280000 0.180000 0
0.300000 0.180000 0
0.320000 0.180000 0
0.340000 0.180000 0
0.360000 0.180000 0
0.380000 0.180000 0
0.400000 0.180000 0
0.420000 0.180000 0
0.440000 0.180000 0
0.460000 0.180000 0
0.480000 0.180000 0
0.500000 0.180000 0
0.520000 0.180000 0
0.540000 0.180000 0
0.560000 0.180000 0
0.580000 0.180000 0
0.600000 0.180000 0
0.620000 0.180000 0
[...]
POINT_DATA 2601 

VECTORS velocity float
0.000000 0.000000 0
0.000000 0.000000 0
0.000000 0.000000 0
0.000000 0.000000 0
0.000000 0.000000 0
0.000000 0.000000 0
0.000000 0.000000 0
0.000000 0.000000 0
0.000000 0.000000 0
0.000000 0.000000 0
0.000000 0.000000 0
0.000000 0.000000 0
0.000000 0.000000 0
0.000000 0.000000 0
0.000000 0.000000 0
0.000000 0.000000 0
0.000000 0.000000 0
0.000000 0.000000 0
0.000000 0.000000 0
0.000000 0.000000 0
0.000000 0.000000 0
0.000000 0.000000 0
0.000000 0.000000 0
0.000000 0.000000 0
0.000000 0.000000 0
0.000000 0.000000 0
0.000000 0.000000 0
0.000000 0.000000 0
0.000000 0.000000 0
0.000000 0.000000 0
0.000000 0.000000 0
0.000000 0.000000 0
0.000000 0.000000 0
0.000000 0.000000 0
0.000000 0.000000 0
0.000000 0.000000 0
0.000000 0.000000 0
0.000000 0.000000 0
-0.000000 0.000000 0
-0.000000 0.000000 0
-0.000000 0.000000 0
-0.000000 0.000000 0
-0.000000 0.000000 0
-0.000000 0.000000 0
-0.000000 0.000000 0
-0.000000 0.000000 0
-0.000000 0.000000 0
-0.000000 0.000000 0
-0.000000 0.000000 0
-0.000000 0.000000 0
0.000000 0.000000 0
0.000000 0.000000 0
-0.000036 -0.000177 0
-0.000072 -0.000360 0
-0.000108 -0.000554 0
-0.000145 -0.000763 0
-0.000182 -0.000995 0
-0.000220 -0.001255 0
-0.000260 -0.001550 0
-0.000302 -0.001889 0
-0.000345 -0.002280 0
-0.000392 -0.002736 0
-0.000443 -0.003267 0
-0.000499 -0.003890 0
-0.000561 -0.004623 0
-0.000632 -0.005488 0
-0.000713 -0.006510 0
-0.000807 -0.007722 0
-0.000919 -0.009162 0
-0.001051 -0.010877 0
-0.001210 -0.012923 0
-0.001402 -0.015368 0
-0.001636 -0.018292 0
-0.001920 -0.021789 0
-0.002266 -0.025969 0
-0.002689 -0.030956 0
-0.003203 -0.036883 0
-0.003825 -0.043890 0
-0.004573 -0.052104 0
-0.005463 -0.061622 0
-0.006506 -0.072479 0
-0.007704 -0.084606 0
-0.009045 -0.097774 0
-0.010498 -0.111552 0
-0.012004 -0.125259 0
-0.013475 -0.137971 0
-0.014797 -0.148567 0
-0.015840 -0.155867 0
-0.016475 -0.158827 0
-0.016603 -0.156765 0
-0.016173 -0.149558 0
-0.015206 -0.137711 0
-0.013786 -0.122287 0
-0.012049 -0.104688 0
-0.010150 -0.086365 0
-0.008237 -0.068568 0
-0.006423 -0.052174 0
-0.004780 -0.037645 0
-0.003337 -0.025063 0
-0.002087 -0.014201 0
-0.000995 -0.004578 0
0.000000 0.000000 0
0.000000 0.000000 0
-0.000071 -0.000349 0
-0.000143 -0.000709 0
-0.000215 -0.001090 0
-0.000288 -0.001502 0
-0.000362 -0.001956 0
-0.000438 -0.002467 0
-0.000517 -0.003045 0
-0.000598 -0.003709 0
-0.000684 -0.004474 0
-0.000776 -0.005362 0
-0.000874 -0.006396 0
-0.000983 -0.007604 0
-0.001103 -0.009021 0
-0.001238 -0.010685 0
-0.001392 -0.012645 0
-0.001571 -0.014956 0
-0.001781 -0.017687 0
-0.002028 -0.020916 0
-0.002323 -0.024738 0
-0.002675 -0.029262 0
-0.003099 -0.034615 0
-0.003610 -0.040940 0
-0.004226 -0.048394 0
-0.004967 -0.057144 0
-0.005855 -0.067357 0
-0.006913 -0.079185 0
-0.008161 -0.092741 0
-0.009618 -0.108066 0
-0.011292 -0.125094 0
-0.013177 -0.143599 0
-0.015247 -0.163153 0
-0.017451 -0.183084 0
-0.019705 -0.202459 0
-0.021888 -0.220102 0
-0.023852 -0.234663 0
-0.025428 -0.244746 0
-0.026445 -0.249095 0
-0.026761 -0.246814 0
-0.026290 -0.237571 0
-0.025023 -0.221720 0
-0.023040 -0.200305 0
-0.020497 -0.174904 0
-0.017597 -0.147363 0
-0.014554 -0.119479 0
-0.011556 -0.092726 0
-0.008741 -0.068088 0
-0.006188 -0.045994 0
-0.003914 -0.026344 0
-0.001881 -0.008543 0
0.000000 0.000000 0
0.000000 0.000000 0
-0.000106 -0.000510 0
-0.000213 -0.001036 0
-0.000320 -0.001591 0
-0.000429 -0.002192 0
-0.000539 -0.002855 0
-0.000651 -0.003596 0
-0.000767 -0.004437 0
-0.000886 -0.005398 0
-0.001011 -0.006503 0
-0.001144 -0.007782 0
-0.001285 -0.009266 0
-0.001439 -0.010993 0
-0.001609 -0.013007 0
-0.001798 -0.015360 0
-0.002013 -0.018113 0
-0.002260 -0.021336 0
-0.002545 -0.025112 0
-0.002879 -0.029534 0
-0.003272 -0.034710 0
-0.003737 -0.040763 0
-0.004289 -0.047826 0
-0.004946 -0.056042 0
-0.005725 -0.065559 0
-0.006649 -0.076521 0
-0.007737 -0.089055 0
-0.009010 -0.103255 0
-0.010487 -0.119159 0
-0.012179 -0.136726 0
-0.014090 -0.155800 0
-0.016210 -0.176087 0
-0.018509 -0.197116 0
-0.020935 -0.218223 0
-0.023406 -0.238531 0
-0.025808 -0.256961 0
-0.027996 -0.272274 0
-0.029802 -0.283160 0
-0.031052 -0.288382 0
-0.031585 -0.286966 0
-0.031290 -0.278394 0
-0.030124 -0.262757 0
-0.028131 -0.240792 0
-0.025437 -0.213812 0
-0.022231 -0.183506 0
-0.018730 -0.151676 0
-0.015147 -0.119971 0
-0.011657 -0.089659 0
-0.008379 -0.061491 0
-0.005366 -0.035629 0
-0.002602 -0.011629 0
0.000000 0.000000 0
0.000000 0.000000 0
-0.000141 -0.000656 0
-0.000282 -0.001331 0
-0.000424 -0.002043 0
-0.000567 -0.002814 0
-0.000711 -0.003662 0
-0.000858 -0.004610 0
-0.001008 -0.005682 0
-0.001162 -0.006903 0
-0.001322 -0.008305 0
-0.001490 -0.009919 0
-0.001668 -0.011783 0
-0.001860 -0.013943 0
-0.002069 -0.016446 0
-0.002300 -0.019351 0
-0.002559 -0.022722 0
-0.002853 -0.026635 0
-0.003189 -0.031174 0
-0.003577 -0.036432 0
-0.004029 -0.042514 0
-0.004557 -0.049530 0
-0.005175 -0.057600 0
-0.005900 -0.066841 0
-0.006749 -0.077370 0
-0.007740 -0.089289 0
-0.008893 -0.102678 0
-0.010224 -0.117585 0
-0.011750 -0.134005 0
-0.013481 -0.151869 0
-0.015421 -0.171022 0
-0.017562 -0.191199 0
-0.019883 -0.212001 0
-0.022340 -0.232863 0
-0.024863 -0.253027 0
-0.027348 -0.271527 0
-0.029659 -0.287207 0
-0.031629 -0.298785 0
-0.033077 -0.304991 0
-0.033828 -0.304754 0
-0.033748 -0.297412 0
-0.032771 -0.282875 0
-0.030915 -0.261690 0
-0.028282 -0.234972 0
-0.025039 -0.204229 0
-0.021391 -0.171138 0
-0.017549 -0.137300 0
-0.013698 -0.104038 0
-0.009976 -0.072244 0
-0.006460 -0.042272 0
-0.003157 -0.013875 0
0.000000 0.000000 0
0.000000 0.000000 0
-0.000175 -0.000781 0
-0.000350 -0.001585 0
-0.000525 -0.002433 0
-0.000701 -0.003349 0
-0.000879 -0.004356 0
-0.001058 -0.005479 0
-0.001239 -0.006746 0
-0.001425 -0.008185 0
-0.001615 -0.009830 0
-0.001813 -0.011717 0
-0.002020 -0.013886 0
-0.002241 -0.016383 0
-0.002478 -0.019259 0
-0.002738 -0.022572 0
-0.003024 -0.026385 0
-0.003345 -0.030770 0
-0.003707 -0.035805 0
-0.004120 -0.041575 0
-0.004595 -0.048171 0
-0.005143 -0.055685 0
-0.005778 -0.064215 0
-0.006513 -0.073853 0
-0.007366 -0.084687 0
-0.008353 -0.096791 0
-0.009490 -0.110223 0
-0.010796 -0.125017 0
-0.012286 -0.141172 0
-0.013974 -0.158641 0
-0.015869 -0.177318 0
-0.017971 -0.197008 0
-0.020266 -0.217401 0
-0.022724 -0.238025 0
-0.025282 -0.258210 0
-0.027848 -0.277049 0
-0.030288 -0.293400 0
-0.032430 -0.305949 0
-0.034082 -0.313338 0
-0.035053 -0.314372 0
-0.035187 -0.308251 0
-0.034396 -0.294757 0
-0.032681 -0.274334 0
-0.030130 -0.248014 0
-0.026902 -0.217236 0
-0.023196 -0.183606 0
-0.019217 -0.148664 0
-0.015151 -0.113708 0
-0.011141 -0.079653 0
-0.007276 -0.046940 0
-0.003578 -0.015471 0
0.000000 0.000000 0
0.000000 0.000000 0
-0.000208 -0.000883 0
-0.000416 -0.001792 0
-0.000625 -0.002750 0
-0.000833 -0.003784 0
-0.001041 -0.004919 0
-0.001250 -0.006183 0
-0.001460 -0.007605 0
-0.001673 -0.009216 0
-0.001889 -0.011051 0
-0.002111 -0.013146 0
-0.002340 -0.015543 0
-0.002581 -0.018285 0
-0.002837 -0.021422 0
-0.003111 -0.025009 0
-0.003410 -0.029105 0
-0.003740 -0.033773 0
-0.004108 -0.039084 0
-0.004523 -0.045108 0
-0.004993 -0.051923 0
-0.005531 -0.059607 0
-0.006148 -0.068236 0
-0.006857 -0.077887 0
-0.007675 -0.088633 0
-0.008617 -0.100539 0
-0.009701 -0.113664 0
-0.010946 -0.128052 0
-0.012371 -0.143730 0
-0.013993 -0.160694 0
-0.015828 -0.178893 0
-0.017883 -0.198204 0
-0.020156 -0.218387 0
-0.022624 -0.239042 0
-0.025234 -0.259551 0
-0.027898 -0.279034 0
-0.030484 -0.296338 0
-0.032817 -0.310088 0
-0.034689 -0.318819 0
-0.035890 -0.321196 0
-0.036241 -0.316270 0
-0.035630 -0.303702 0
-0.034043 -0.283858 0
-0.031560 -0.257748 0
-0.028339 -0.226815 0
-0.024580 -0.192676 0
-0.020492 -0.156868 0
-0.016261 -0.120672 0
-0.012035 -0.084999 0
-0.007905 -0.050323 0
-0.003905 -0.016632 0
0.000000 0.000000 0
0.000000 0.000000 0
-0.000241 -0.000959 0
-0.000482 -0.001946 0
-0.000722 -0.002986 0
-0.000962 -0.004108 0
-0.001200 -0.005338 0
-0.001436 -0.006707 0
-0.001673 -0.008244 0
-0.001909 -0.009981 0
-0.002146 -0.011953 0
-0.002386 -0.014195 0
-0.002631 -0.016746 0
-0.002884 -0.019650 0
-0.003148 -0.022951 0
-0.003427 -0.026700 0
-0.003726 -0.030948 0
-0.004051 -0.035751 0
-0.004409 -0.041170 0
-0.004807 -0.047266 0
-0.005254 -0.054103 0
-0.005761 -0.061747 0
-0.006339 -0.070267 0
-0.007002 -0.079730 0
-0.007764 -0.090207 0
-0.008643 -0.101767 0
-0.009659 -0.114481 0
-0.010831 -0.128415 0
-0.012183 -0.143629 0
-0.013737 -0.160161 0
-0.015514 -0.178013 0
-0.017530 -0.197114 0
-0.019790 -0.217286 0
-0.022278 -0.238178 0
-0.024951 -0.259213 0
-0.027727 -0.279528 0
-0.030474 -0.297953 0
-0.033011 -0.313049 0
-0.035120 -0.323243 0
-0.036566 -0.327049 0
-0.037146 -0.323356 0
-0.036722 -0.311687 0
-0.035261 -0.292328 0
-0.032836 -0.266280 0
-0.029606 -0.235030 0
-0.025781 -0.200258 0
-0.021579 -0.163555 0
-0.017194 -0.126228 0
-0.012776 -0.089199 0
-0.008423 -0.052954 0
-0.004172 -0.017530 0
0.000000 0.000000 0
0.000000 0.000000 0
-0.000274 -0.001007 0
-0.000548 -0.002043 0
-0.000820 -0.003136 0
-0.001089 -0.004314 0
-0.001355 -0.005607 0
-0.001618 -0.007045 0
-0.001878 -0.008657 0
-0.002134 -0.010476 0
-0.002389 -0.012535 0
-0.002643 -0.014868 0
-0.002897 -0.017511 0
-0.003155 -0.020505 0
-0.003420 -0.023890 0
-0.003695 -0.027710 0
-0.003984 -0.032011 0
-0.004293 -0.036842 0
-0.004629 -0.042254 0
-0.004998 -0.048301 0
-0.005409 -0.055039 0
-0.005873 -0.062530 0
-0.006400 -0.070835 0
-0.007004 -0.080023 0
-0.007702 -0.090168 0
-0.008512 -0.101349 0
-0.009453 -0.113654 0
-0.010551 -0.127172 0
-0.011830 -0.141993 0
-0.013318 -0.158193 0
-0.015041 -0.175813 0
-0.017022 -0.194831 0
-0.019273 -0.215114 0
-0.021787 -0.236357 0
-0.024528 -0.258021 0
-0.027421 -0.279260 0
-0.030336 -0.298895 0
-0.033090 -0.315431 0
-0.035449 -0.327186 0
-0.037160 -0.332519 0
-0.037988 -0.330142 0
-0.037768 -0.319419 0
-0.036443 -0.300541 0
-0.034075 -0.274493 0
-0.030829 -0.242821 0
-0.026925 -0.207299 0
-0.022596 -0.169612 0
-0.018049 -0.131136 0
-0.013444 -0.092825 0
-0.008883 -0.055188 0
-0.004407 -0.018286 0
0.000000 0.000000 0
0.000000 0.000000 0
-0.000308 -0.001025 0
-0.000614 -0.002080 0
-0.000918 -0.003194 0
-0.001217 -0.004398 0
-0.001511 -0.005720 0
-0.001798 -0.007192 0
-0.002079 -0.008842 0
-0.002354 -0.010703 0
-0.002622 -0.012805 0
-0.002885 -0.015181 0
-0.003145 -0.017865 0
-0.003403 -0.020891 0
-0.003662 -0.024297 0
-0.003925 -0.028122 0
-0.004197 -0.032405 0
-0.004483 -0.037189 0
-0.004788 -0.042520 0
-0.005120 -0.048447 0
-0.005487 -0.055022 0
-0.005899 -0.062301 0
-0.006369 -0.070349 0
-0.006910 -0.079236 0
-0.007539 -0.089043 0
-0.008275 -0.099862 0
-0.009141 -0.111794 0
-0.010163 -0.124951 0
-0.011371 -0.139448 0
-0.012794 -0.155391 0
-0.014465 -0.172856 0
-0.016411 -0.191859 0
-0.018653 -0.212312 0
-0.021192 -0.233953 0
-0.024001 -0.256282 0
-0.027011 -0.278483 0
-0.030099 -0.299372 0
-0.033078 -0.317411 0
-0.035703 -0.330813 0
-0.037698 -0.337780 0
-0.038797 -0.336830 0
-0.038803 -0.327147 0
-0.037631 -0.308804 0
-0.035331 -0.282757 0
-0.032068 -0.250612 0
-0.028076 -0.214258 0
-0.023608 -0.175501 0
-0.018888 -0.135815 0
-0.014088 -0.096217 0
-0.009320 -0.057243 0
-0.004628 -0.018975 0
0.000000 0.000000 0
0.000000 0.000000 0
-0.000342 -0.001012 0
-0.000682 -0.002055 0
-0.001018 -0.003159 0
-0.001347 -0.004357 0
-0.001668 -0.005676 0
-0.001980 -0.007149 0
-0.002281 -0.008803 0
-0.002572 -0.010670 0
-0.002851 -0.012778 0
-0.003121 -0.015157 0
-0.003381 -0.017839 0
-0.003634 -0.020854 0
-0.003883 -0.024235 0
-0.004129 -0.028016 0
-0.004378 -0.032233 0
-0.004634 -0.036925 0
-0.004903 -0.042133 0
-0.005192 -0.047901 0
-0.005510 -0.054281 0
-0.005867 -0.061328 0
-0.006275 -0.069109 0
-0.006749 -0.077699 0
-0.007307 -0.087186 0
-0.007968 -0.097671 0
-0.008758 -0.109271 0
-0.009705 -0.122115 0
-0.010840 -0.136337 0
-0.012197 -0.152069 0
-0.013814 -0.169418 0
-0.015723 -0.188436 0
-0.017952 -0.209074 0
-0.020511 -0.231119 0
-0.023383 -0.254114 0
-0.026509 -0.277279 0
-0.029770 -0.299442 0
-0.032980 -0.319028 0
-0.035885 -0.334156 0
-0.038186 -0.342866 0
-0.039583 -0.343471 0
-0.039842 -0.334952 0
-0.038847 -0.317234 0
-0.036628 -0.291230 0
-0.033352 -0.258602 0
-0.029268 -0.221361 0
-0.024650 -0.181460 0
-0.019744 -0.140495 0
-0.014739 -0.099564 0
-0.009756 -0.059247 0
-0.004847 -0.019642 0
0.000000 0.000000 0
0.000000 0.000000 0
-0.000379 -0.000967 0
-0.000754 -0.001965 0
-0.001123 -0.003029 0
-0.001483 -0.004188 0
-0.001832 -0.005474 0
-0.002168 -0.006917 0
-0.002488 -0.008545 0
-0.002793 -0.010386 0
-0.003082 -0.012469 0
-0.003356 -0.014820 0
-0.003614 -0.017467 0
-0.003859 -0.020438 0
-0.004093 -0.023762 0
-0.004319 -0.027469 0
-0.004541 -0.031591 0
-0.004763 -0.036163 0
-0.004991 -0.041225 0
-0.005234 -0.046818 0
-0.005498 -0.052993 0
-0.005796 -0.059807 0
-0.006140 -0.067328 0
-0.006545 -0.075636 0
-0.007029 -0.084826 0
-0.007614 -0.095008 0
-0.008326 -0.106309 0
-0.009195 -0.118872 0
-0.010255 -0.132850 0
-0.011544 -0.148395 0
-0.013102 -0.165641 0
-0.014969 -0.184676 0
-0.017178 -0.205490 0
-0.019751 -0.227919 0
-0.022680 -0.251558 0
-0.025915 -0.275671 0
-0.029349 -0.299108 0
-0.032795 -0.320274 0
-0.035993 -0.337201 0
-0.038621 -0.347765 0
-0.040346 -0.350064 0
-0.040889 -0.342850 0
-0.040098 -0.325876 0
-0.037981 -0.299985 0
-0.034701 -0.266887 0
-0.030523 -0.228727 0
-0.025746 -0.187618 0
-0.020640 -0.145301 0
-0.015416 -0.102976 0
-0.010207 -0.061275 0
-0.005072 -0.020313 0
0.000000 0.000000 0
0.000000 0.000000 0
-0.000417 -0.000888 0
-0.000830 -0.001810 0
-0.001235 -0.002800 0
-0.001628 -0.003891 0
-0.002006 -0.005114 0
-0.002366 -0.006498 0
-0.002706 -0.008072 0
-0.003025 -0.009862 0
-0.003323 -0.011894 0
-0.003598 -0.014192 0
-0.003852 -0.016781 0
-0.004087 -0.019685 0
-0.004304 -0.022931 0
-0.004505 -0.026544 0
-0.004696 -0.030555 0
-0.004881 -0.034996 0
-0.005066 -0.039902 0
-0.005258 -0.045317 0
-0.005466 -0.051289 0
-0.005702 -0.057878 0
-0.005979 -0.065153 0
-0.006312 -0.073198 0
-0.006720 -0.082114 0
-0.007227 -0.092017 0
-0.007858 -0.103043 0
-0.008647 -0.115347 0
-0.009628 -0.129096 0
-0.010843 -0.144461 0
-0.012337 -0.161602 0
-0.014154 -0.180638 0
-0.016336 -0.201603 0
-0.018914 -0.224382 0
-0.021890 -0.248628 0
-0.025229 -0.273659 0
-0.028831 -0.298359 0
-0.032518 -0.321126 0
-0.036021 -0.339914 0
-0.038998 -0.352446 0
-0.041080 -0.356586 0
-0.041942 -0.350836 0
-0.041388 -0.334743 0
-0.039397 -0.309057 0
-0.036126 -0.275523 0
-0.031855 -0.236424 0
-0.026910 -0.194051 0
-0.021591 -0.150309 0
-0.016131 -0.106516 0
-0.010681 -0.063371 0
-0.005308 -0.021005 0
0.000000 0.000000 0
0.000000 0.000000 0
-0.000459 -0.000774 0
-0.000914 -0.001584 0
-0.001357 -0.002469 0
-0.001785 -0.003460 0
-0.002194 -0.004592 0
-0.002580 -0.005892 0
-0.002941 -0.007388 0
-0.003274 -0.009105 0
-0.003580 -0.011065 0
-0.003856 -0.013292 0
-0.004105 -0.015807 0
-0.004327 -0.018630 0
-0.004524 -0.021785 0
-0.004699 -0.025296 0
-0.004856 -0.029189 0
-0.005000 -0.033494 0
-0.005138 -0.038246 0
-0.005277 -0.043486 0
-0.005426 -0.049264 0
-0.005597 -0.055640 0
-0.005803 -0.062685 0
-0.006061 -0.070486 0
-0.006391 -0.079146 0
-0.006816 -0.088789 0
-0.007363 -0.099558 0
-0.008067 -0.111614 0
-0.008964 -0.125139 0
-0.010100 -0.140321 0
-0.011522 -0.157343 0
-0.013281 -0.176355 0
-0.015427 -0.197435 0
-0.017998 -0.220521 0
-0.021011 -0.245327 0
-0.024444 -0.271234 0
-0.028210 -0.297174 0
-0.032139 -0.321551 0
-0.035958 -0.342259 0
-0.039307 -0.356866 0
-0.041779 -0.363002 0
-0.042998 -0.358888 0
-0.042718 -0.343835 0
-0.040882 -0.318466 0
-0.037636 -0.284547 0
-0.033276 -0.244500 0
-0.028155 -0.200810 0
-0.022608 -0.155567 0
-0.016896 -0.110226 0
-0.011187 -0.065561 0
-0.005558 -0.021727 0
0.000000 0.000000 0
0.000000 0.000000 0
-0.000506 -0.000622 0
-0.001006 -0.001285 0
-0.001492 -0.002030 0
-0.001959 -0.002892 0
-0.002402 -0.003904 0
-0.002817 -0.005095 0
-0.003199 -0.006492 0
-0.003548 -0.008118 0
-0.003862 -0.009992 0
-0.004139 -0.012136 0
-0.004381 -0.014565 0
-0.004588 -0.017300 0
-0.004764 -0.020360 0
-0.004910 -0.023765 0
-0.005030 -0.027540 0
-0.005131 -0.031712 0
-0.005219 -0.036316 0
-0.005301 -0.041391 0
-0.005387 -0.046987 0
-0.005490 -0.053163 0
-0.005623 -0.059994 0
-0.005802 -0.067567 0
-0.006049 -0.075988 0
-0.006387 -0.085385 0
-0.006846 -0.095905 0
-0.007459 -0.107720 0
-0.008267 -0.121019 0
-0.009316 -0.136007 0
-0.010659 -0.152890 0
-0.012350 -0.171848 0
-0.014448 -0.193001 0
-0.017002 -0.216343 0
-0.020041 -0.241655 0
-0.023557 -0.268387 0
-0.027480 -0.295532 0
-0.031649 -0.321518 0
-0.035794 -0.344192 0
-0.039537 -0.360980 0
-0.042433 -0.369269 0
-0.044052 -0.366979 0
-0.044087 -0.353143 0
-0.042440 -0.328224 0
-0.039241 -0.293987 0
-0.034796 -0.252993 0
-0.029492 -0.207937 0
-0.023702 -0.161115 0
-0.017718 -0.114138 0
-0.011730 -0.067868 0
-0.005827 -0.022486 0
0.000000 0.000000 0
0.000000 0.000000 0
-0.000559 -0.000428 0
-0.001110 -0.000906 0
-0.001645 -0.001475 0
-0.002156 -0.002175 0
-0.002637 -0.003041 0
-0.003083 -0.004101 0
-0.003490 -0.005381 0
-0.003856 -0.006901 0
-0.004178 -0.008678 0
-0.004456 -0.010730 0
-0.004691 -0.013070 0
-0.004882 -0.015715 0
-0.005034 -0.018679 0
-0.005148 -0.021981 0
-0.005230 -0.025643 0
-0.005284 -0.029691 0
-0.005318 -0.034156 0
-0.005339 -0.039077 0
-0.005359 -0.044504 0
-0.005389 -0.050496 0
-0.005444 -0.057127 0
-0.005540 -0.064486 0
-0.005699 -0.072682 0
-0.005946 -0.081843 0
-0.006310 -0.092122 0
-0.006827 -0.103695 0
-0.007539 -0.116763 0
-0.008493 -0.131543 0
-0.009747 -0.148262 0
-0.011361 -0.167131 0
-0.013400 -0.188312 0
-0.015923 -0.211855 0
-0.018974 -0.237610 0
-0.022562 -0.265108 0
-0.026632 -0.293412 0
-0.031040 -0.320992 0
-0.035518 -0.345669 0
-0.039676 -0.364737 0
-0.043030 -0.375338 0
-0.045094 -0.375070 0
-0.045492 -0.362651 0
-0.044074 -0.338338 0
-0.040946 -0.303869 0
-0.036426 -0.261939 0
-0.030933 -0.215470 0
-0.024883 -0.166987 0
-0.018605 -0.118278 0
-0.012317 -0.070307 0
-0.006117 -0.023289 0
0.000000 0.000000 0
0.000000 0.000000 0
-0.000620 -0.000189 0
-0.001230 -0.000436 0
-0.001819 -0.000791 0
-0.002380 -0.001297 0
-0.002905 -0.001990 0
-0.003387 -0.002898 0
-0.003822 -0.004044 0
-0.004207 -0.005447 0
-0.004540 -0.007121 0
-0.004819 -0.009078 0
-0.005045 -0.011329 0
-0.005220 -0.013885 0
-0.005345 -0.016759 0
-0.005425 -0.019966 0
-0.005464 -0.023524 0
-0.005468 -0.027458 0
-0.005444 -0.031797 0
-0.005400 -0.036578 0
-0.005349 -0.041850 0
-0.005301 -0.047672 0
-0.005272 -0.054117 0
-0.005280 -0.061275 0
-0.005346 -0.069255 0
-0.005495 -0.078188 0
-0.005758 -0.088229 0
-0.006172 -0.099560 0
-0.006779 -0.112388 0
-0.007630 -0.126944 0
-0.008786 -0.143474 0
-0.010311 -0.162217 0
-0.012279 -0.183378 0
-0.014758 -0.207062 0
-0.017807 -0.233195 0
-0.021452 -0.261389 0
-0.025659 -0.290796 0
-0.030299 -0.319941 0
-0.035117 -0.346642 0
-0.039709 -0.368079 0
-0.043558 -0.381153 0
-0.046114 -0.383119 0
-0.046929 -0.372336 0
-0.045787 -0.348810 0
-0.042761 -0.314216 0
-0.038176 -0.271376 0
-0.032489 -0.223450 0
-0.026162 -0.173221 0
-0.019567 -0.122675 0
-0.012952 -0.072898 0
-0.006430 -0.024141 0
0.000000 0.000000 0
0.000000 0.000000 0
-0.000690 0.000104 0
-0.001368 0.000136 0
-0.002021 0.000037 0
-0.002640 -0.000239 0
-0.003215 -0.000731 0
-0.003739 -0.001466 0
-0.004207 -0.002465 0
-0.004614 -0.003743 0
-0.004958 -0.005310 0
-0.005239 -0.007174 0
-0.005457 -0.009340 0
-0.005613 -0.011815 0
-0.005710 -0.014609 0
-0.005752 -0.017731 0
-0.005744 -0.021199 0
-0.005693 -0.025032 0
-0.005606 -0.029259 0
-0.005492 -0.033915 0
-0.005363 -0.039047 0
-0.005232 -0.044713 0
-0.005113 -0.050986 0
-0.005026 -0.057955 0
-0.004992 -0.065729 0
-0.005036 -0.074440 0
-0.005191 -0.084246 0
-0.005493 -0.095331 0
-0.005987 -0.107909 0
-0.006727 -0.122224 0
-0.007773 -0.138537 0
-0.009199 -0.157118 0
-0.011082 -0.178208 0
-0.013503 -0.201973 0
-0.016534 -0.228410 0
-0.020220 -0.257226 0
-0.024550 -0.287665 0
-0.029416 -0.318334 0
-0.034575 -0.347064 0
-0.039620 -0.370948 0
-0.044000 -0.386652 0
-0.047101 -0.391071 0
-0.048391 -0.382166 0
-0.047578 -0.359635 0
-0.044692 -0.325050 0
-0.040058 -0.281340 0
-0.034173 -0.231921 0
-0.027551 -0.179855 0