# vtk DataFile Version 2.0
generated by CFD-lab course output (written by Tobias Neckel) 
ASCII

DATASET STRUCTURED_GRID
DIMENSIONS  51 51 1 
POINTS 2601 float

0.000000 0.000000 0
0.020000 0.000000 0
0.040000 0.000000 0
0.060000 0.000000 0
0.080000 0.000000 0
0.100000 0.000000 0
0.120000 0.000000 0
0.140000 0.000000 0
0.160000 0.000000 0
0.180000 0.000000 0
0.200000 0.000000 0
0.220000 0.000000 0
0.240000 0.000000 0
0.260000 0.000000 0
0.280000 0.000000 0
0.300000 0.000000 0
0.320000 0.000000 0
0.340000 0.000000 0
0.360000 0.000000 0
0.380000 0.000000 0
0.400000 0.000000 0
0.420000 0.000000 0
0.440000 0.000000 0
0.460000 0.000000 0
0.480000 0.000000 0
0.500000 0.000000 0
0.520000 0.000000 0
0.540000 0.000000 0
0.560000 0.000000 0
0.580000 0.000000 0
0.600000 0.000000 0
0.620000 0.000000 0
0.640000 0.000000 0
0.660000 0.000000 0
0.680000 0.000000 0
0.700000 0.000000 0
0.720000 0.000000 0
0.740000 0.000000 0
0.760000 0.000000 0
0.780000 0.000000 0
0.800000 0.000000 0
0.820000 0.000000 0
0.840000 0.000000 0
0.860000 0.000000 0
0.880000 0.000000 0
0.900000 0.000000 0
0.920000 0.000000 0
0.940000 0.000000 0
0.960000 0.000000 0
0.980000 0.000000 0
1.000000 0.000000 0
0.000000 0.020000 0
0.020000 0.020000 0
0.040000 0.020000 0
0.060000 0.020000 0
0.080000 0.020000 0
0.100000 0.020000 0
0.120000 0.020000 0
0.140000 0.020000 0
0.160000 0.020000 0
0.180000 0.020000 0
0.200000 0.020000 0
0.220000 0.020000 0
0.240000 0.020000 0
0.260000 0.020000 0
0.280000 0.020000 0
0.300000 0.020000 0
0.320000 0.020000 0
0.340000 0.020000 0
0.360000 0.020000 0
0.380000 0.020000 0
0.400000 0.020000 0
0.420000 0.020000 0
0.440000 0.020000 0
0.460000 0.020000 0
0.480000 0.020000 0
0.500000 0.020000 0
0.520000 0.020000 0
0.540000 0.020000 0
0.560000 0.020000 0
0.580000 0.020000 0
0.600000 0.020000 0
0.620000 0.020000 0
0.640000 0.020000 0
0.660000 0.020000 0
0.680000 0.020000 0
0.700000 0.020000 0
0.720000 0.020000 0
0.740000 0.020000 0
0.760000 0.020000 0
0.780000 0.020000 0
0.800000 0.020000 0
0.820000 0.020000 0
0.840000 0.020000 0
0.860000 0.020000 0
0.880000 0.020000 0
0.900000 0.020000 0
0.920000 0.020000 0
0.940000 0.020000 0
0.960000 0.020000 0
0.980000 0.020000 0
1.000000 0.020000 0
0.000000 0.040000 0
0.020000 0.040000 0
0.040000 0.040000 0
0.060000 0.040000 0
0.080000 0.040000 0
0.100000 0.040000 0
0.120000 0.040000 0
0.140000 0.040000 0
0.160000 0.040000 0
0.180000 0.040000 0
0.200000 0.040000 0
0.220000 0.040000 0
0.240000 0.040000 0
0.260000 0.040000 0
0.280000 0.040000 0
0.300000 0.040000 0
0.320000 0.040000 0
0.340000 0.040000 0
0.360000 0.040000 0
0.380000 0.040000 0
0.400000 0.040000 0
0.420000 0.040000 0
0.440000 0.040000 0
0.460000 0.040000 0
0.480000 0.040000 0
0.500000 0.040000 0
0.520000 0.040000 0
0.540000 0.040000 0
0.560000 0.040000 0
0.580000 0.040000 0
0.600000 0.040000 0
0.620000 0.040000 0
0.640000 0.040000 0
0.660000 0.040000 0
0.680000 0.040000 0
0.700000 0.040000 0
0.720000 0.040000 0
0.740000 0.040000 0
0.760000 0.040000 0
0.780000 0.040000 0
0.800000 0.040000 0
0.820000 0.040000 0
0.840000 0.040000 0
0.860000 0.040000 0
0.880000 0.040000 0
0.900000 0.040000 0
0.920000 0.040000 0
0.940000 0.040000 0
0.960000 0.040000 0
0.980000 0.040000 0
1.000000 0.040000 0
0.000000 0.060000 0
0.020000 0.060000 0
0.040000 0.060000 0
0.060000 0.060000 0
0.080000 0.060000 0
0.100000 0.060000 0
0.120000 0.060000 0
0.140000 0.060000 0
0.160000 0.060000 0
0.180000 0.060000 0
0.200000 0.060000 0
0.220000 0.060000 0
0.240000 0.060000 0
0.260000 0.060000 0
0.280000 0.060000 0
0.300000 0.060000 0
0.320000 0.060000 0
0.340000 0.060000 0
0.360000 0.060000 0
0.380000 0.060000 0
0.400000 0.060000 0
0.420000 0.060000 0
0.440000 0.060000 0
0.460000 0.060000 0
0.480000 0.060000 0
0.500000 0.060000 0
0.520000 0.060000 0
0.540000 0.060000 0
0.560000 0.060000 0
0.580000 0.060000 0
0.600000 0.060000 0
0.620000 0.060000 0
0.640000 0.060000 0
0.660000 0.060000 0
0.680000 0.060000 0
0.700000 0.060000 0
0.720000 0.060000 0
0.740000 0.060000 0
0.760000 0.060000 0
0.780000 0.060000 0
0.800000 0.060000 0
0.820000 0.060000 0
0.840000 0.060000 0
0.860000 0.060000 0
0.880000 0.060000 0
0.900000 0.060000 0
0.920000 0.060000 0
0.940000 0.060000 0
0.960000 0.060000 0
0.980000 0.060000 0
1.000000 0.060000 0
0.000000 0.080000 0
0.020000 0.080000 0
0.040000 0.080000 0
0.060000 0.080000 0
0.080000 0.080000 0
0.100000 0.080000 0
0.120000 0.080000 0
0.140000 0.080000 0
0.160000 0.080000 0
0.180000 0.080000 0
0.200000 0.080000 0
0.220000 0.080000 0
0.240000 0.080000 0
0.260000 0.080000 0
0.280000 0.080000 0
0.300000 0.080000 0
0.320000 0.080000 0
0.340000 0.080000 0
0.360000 0.080000 0
0.380000 0.080000 0
0.400000 0.080000 0
0.420000 0.080000 0
0.440000 0.080000 0
0.460000 0.080000 0
0.480000 0.080000 0
0.500000 0.080000 0
0.520000 0.080000 0
0.540000 0.080000 0
0.560000 0.080000 0
0.580000 0.080000 0
0.600000 0.080000 0
0.620000 0.080000 0
0.640000 0.080000 0
0.660000 0.080000 0
0.680000 0.080000 0
0.700000 0.080000 0
0.720000 0.080000 0
0.740000 0.080000 0
0.760000 0.080000 0
0.780000 0.080000 0
0.800000 0.080000 0
0.820000 0.080000 0
0.840000 0.080000 0
0.860000 0.080000 0
0.880000 0.080000 0
0.900000 0.080000 0
0.920000 0.080000 0
0.940000 0.080000 0
0.960000 0.080000 0
0.980000 0.080000 0
1.000000 0.080000 0
0.000000 0.100000 0
0.020000 0.100000 0
0.040000 0.100000 0
0.060000 0.100000 0
0.080000 0.100000 0
0.100000 0.100000 0
0.120000 0.100000 0
0.140000 0.100000 0
0.160000 0.100000 0
0.180000 0.100000 0
0.200000 0.100000 0
0.220000 0.100000 0
0.240000 0.100000 0
0.260000 0.100000 0
0.280000 0.100000 0
0.300000 0.100000 0
0.320000 0.100000 0
0.340000 0.100000 0
0.360000 0.100000 0
0.380000 0.100000 0
0.400000 0.100000 0
0.420000 0.100000 0
0.440000 0.100000 0
0.460000 0.100000 0
0.480000 0.100000 0
0.500000 0.100000 0
0.520000 0.100000 0
0.540000 0.100000 0
0.560000 0.100000 0
0.580000 0.100000 0
0.600000 0.100000 0
0.620000 0.100000 0
0.640000 0.100000 0
0.660000 0.100000 0
0.680000 0.100000 0
0.700000 0.100000 0
0.720000 0.100000 0
0.740000 0.100000 0
0.760000 0.100000 0
0.780000 0.100000 0
0.800000 0.100000 0
0.820000 0.100000 0
0.840000 0.100000 0
0.860000 0.100000 0
0.880000 0.100000 0
0.900000 0.100000 0
0.920000 0.100000 0
0.940000 0.100000 0
0.960000 0.100000 0
0.980000 0.100000 0
1.000000 0.100000 0
0.000000 0.120000 0
0.020000 0.120000 0
0.040000 0.120000 0
0.060000 0.120000 0
0.080000 0.120000 0
0.100000 0.120000 0
0.120000 0.120000 0
0.140000 0.120000 0
0.160000 0.120000 0
0.180000 0.120000 0
0.200000 0.120000 0
0.220000 0.120000 0
0.240000 0.120000 0
0.260000 0.120000 0
0.280000 0.120000 0
0.300000 0.120000 0
0.320000 0.120000 0
0.340000 0.120000 0
0.360000 0.120000 0
0.380000 0.120000 0
0.400000 0.120000 0
0.420000 0.120000 0
0.440000 0.120000 0
0.460000 0.120000 0
0.480000 0.120000 0
0.500000 0.120000 0
0.520000 0.120000 0
0.540000 0.120000 0
0.560000 0.120000 0
0.580000 0.120000 0
0.600000 0.120000 0
0.620000 0.120000 0
0.640000 0.120000 0
0.660000 0.120000 0
0.680000 0.120000 0
0.700000 0.120000 0
0.720000 0.120000 0
0.740000 0.120000 0
0.760000 0.120000 0
0.780000 0.120000 0
0.800000 0.120000 0
0.820000 0.120000 0
0.840000 0.120000 0
0.860000 0.120000 0
0.880000 0.120000 0
0.900000 0.120000 0
0.920000 0.120000 0
0.940000 0.120000 0
0.960000 0.120000 0
0.980000 0.120000 0
1.000000 0.120000 0
0.000000 0.140000 0
0.020000 0.140000 0
0.040000 0.140000 0
0.060000 0.140000 0
0.080000 0.140000 0
0.100000 0.140000 0
0.120000 0.140000 0
0.140000 0.140000 0
0.160000 0.140000 0
0.180000 0.140000 0
0.200000 0.140000 0
0.220000 0.140000 0
0.240000 0.140000 0
0.260000 0.140000 0
0.280000 0.140000 0
0.300000 0.140000 0
0.320000 0.140000 0
0.340000 0.140000 0
0.360000 0.140000 0
0.380000 0.140000 0
0.400000 0.140000 0
0.420000 0.140000 0
0.440000 0.140000 0
0.460000 0.140000 0
0.480000 0.140000 0
0.500000 0.140000 0
0.520000 0.140000 0
0.540000 0.140000 0
0.560000 0.140000 0
0.580000 0.140000 0
0.600000 0.140000 0
0.620000 0.140000 0
0.640000 0.140000 0
0.660000 0.140000 0
0.680000 0.140000 0
0.700000 0.140000 0
0.720000 0.140000 0
0.740000 0.140000 0
0.760000 0.140000 0
0.780000 0.140000 0
0.800000 0.140000 0
0.820000 0.140000 0
0.840000 0.140000 0
0.860000 0.140000 0
0.880000 0.140000 0
0.900000 0.140000 0
0.920000 0.140000 0
0.940000 0.140000 0
0.960000 0.140000 0
0.980000 0.140000 0
1.000000 0.140000 0
0.000000 0.160000 0
0.020000 0.160000 0
0.040000 0.160000 0
0.060000 0.160000 0
0.080000 0.160000 0
0.100000 0.160000 0
0.120000 0.160000 0
0.140000 0.160000 0
0.160000 0.160000 0
0.180000 0.160000 0
0.200000 0.160000 0
0.220000 0.160000 0
0.240000 0.160000 0
0.260000 0.160000 0
0.280000 0.160000 0
0.300000 0.160000 0
0.320000 0.160000 0
0.340000 0.160000 0
0.360000 0.160000 0
0.380000 0.160000 0
0.400000 0.160000 0
0.420000 0.160000 0
0.440000 0.160000 0
0.460000 0.160000 0
0.480000 0.160000 0
0.500000 0.160000 0
0.520000 0.160000 0
0.540000 0.160000 0
0.560000 0.160000 0
0.580000 0.160000 0
0.600000 0.160000 0
0.620000 0.160000 0
0.640000 0.160000 0
0.660000 0.160000 0
0.680000 0.160000 0
0.700000 0.160000 0
0.720000 0.160000 0
0.740000 0.160000 0
0.760000 0.160000 0
0.780000 0.160000 0
0.800000 0.160000 0
0.820000 0.160000 0
0.840000 0.160000 0
0.860000 0.160000 0
0.880000 0.160000 0
0.900000 0.160000 0
0.920000 0.160000 0
0.940000 0.160000 0
0.960000 0.160000 0
0.980000 0.160000 0
1.000000 0.160000 0
0.000000 0.180000 0
0.020000 0.180000 0
0.040000 0.180000 0
0.060000 0.180000 0
0.080000 0.180000 0
0.100000 0.180000 0
0.120000 0.180000 0
0.140000 0.180000 0
0.160000 0.180000 0
0.180000 0.180000 0
0.200000 0.180000 0
0.220000 0.180000 0
0.240000 0.180000 0
0.260000 0.180000 0
0.280000 0.180000 0
0.300000 0.180000 0
0.320000 0.180000 0
0.340000 0.180000 0
0.360000 0.180000 0
0.380000 0.180000 0
0.400000 0.180000 0
0.420000 0.180000 0
0.440000 0.180000 0
0.460000 0.180000 0
0.480000 0.180000 0
0.500000 0.180000 0
0.520000 0.180000 0
0.540000 0.180000 0
0.560000 0.180000 0
0.580000 0.180000 0
0.600000 0.180000 0
0.620000 0.180000 0
[...]
POINT_DATA 2601 

VECTORS velocity float
0.000000 0.000000 0
0.000000 0.000000 0
0.000000 0.000000 0
0.000000 0.000000 0
0.000000 0.000000 0
0.000000 0.000000 0
0.000000 0.000000 0
0.000000 0.000000 0
0.000000 0.000000 0
0.000000 0.000000 0
0.000000 0.000000 0
0.000001 0.000000 0
0.000001 0.000000 0
0.000001 0.000000 0
0.000001 0.000000 0
0.000001 0.000000 0
0.000002 0.000000 0
0.000002 0.000000 0
0.000002 0.000000 0
0.000002 0.000000 0
0.000003 0.000000 0
0.000003 0.000000 0
0.000003 0.000000 0
0.000004 0.000000 0
0.000004 0.000000 0
0.000004 0.000000 0
0.000004 0.000000 0
0.000005 0.000000 0
0.000005 0.000000 0
0.000005 0.000000 0
0.000005 0.000000 0
0.000005 0.000000 0
0.000005 0.000000 0
0.000005 0.000000 0
0.000005 0.000000 0
0.000005 0.000000 0
0.000004 0.000000 0
0.000004 0.000000 0
0.000003 0.000000 0
0.000003 0.000000 0
0.000002 0.000000 0
0.000002 0.000000 0
0.000002 0.000000 0
0.000001 0.000000 0
0.000001 0.000000 0
0.000001 0.000000 0
0.000001 0.000000 0
0.000000 0.000000 0
0.000000 0.000000 0
0.000000 0.000000 0
0.000000 0.000000 0
0.000000 -0.000000 0
-0.000122 -0.000264 0
-0.000245 -0.000537 0
-0.000373 -0.000829 0
-0.000506 -0.001149 0
-0.000646 -0.001506 0
-0.000795 -0.001909 0
-0.000954 -0.002370 0
-0.001123 -0.002899 0
-0.001305 -0.003506 0
-0.001499 -0.004205 0
-0.001707 -0.005008 0
-0.001929 -0.005932 0
-0.002167 -0.006993 0
-0.002419 -0.008211 0
-0.002689 -0.009611 0
-0.002976 -0.011218 0
-0.003282 -0.013067 0
-0.003610 -0.015197 0
-0.003963 -0.017657 0
-0.004346 -0.020505 0
-0.004764 -0.023809 0
-0.005224 -0.027652 0
-0.005737 -0.032127 0
-0.006313 -0.037343 0
-0.006963 -0.043414 0
-0.007702 -0.050457 0
-0.008542 -0.058581 0
-0.009493 -0.067860 0
-0.010563 -0.078312 0
-0.011747 -0.089853 0
-0.013029 -0.102257 0
-0.014372 -0.115099 0
-0.015716 -0.127729 0
-0.016974 -0.139269 0
-0.018035 -0.148663 0
-0.018778 -0.154806 0
-0.019085 -0.156737 0
-0.018870 -0.153849 0
-0.018099 -0.146075 0
-0.016805 -0.133949 0
-0.015087 -0.118528 0
-0.013086 -0.101172 0
-0.010963 -0.083270 0
-0.008862 -0.065996 0
-0.006894 -0.050161 0
-0.005125 -0.036172 0
-0.003577 -0.024080 0
-0.002238 -0.013647 0
-0.001068 -0.004400 0
0.000000 0.000000 0
0.000000 -0.000000 0
-0.000241 -0.000519 0
-0.000486 -0.001057 0
-0.000738 -0.001631 0
-0.001001 -0.002258 0
-0.001278 -0.002958 0
-0.001570 -0.003749 0
-0.001881 -0.004649 0
-0.002212 -0.005679 0
-0.002565 -0.006860 0
-0.002942 -0.008214 0
-0.003343 -0.009766 0
-0.003770 -0.011543 0
-0.004222 -0.013575 0
-0.004701 -0.015897 0
-0.005206 -0.018547 0
-0.005740 -0.021572 0
-0.006304 -0.025025 0
-0.006901 -0.028971 0
-0.007536 -0.033485 0
-0.008214 -0.038655 0
-0.008943 -0.044583 0
-0.009734 -0.051388 0
-0.010600 -0.059196 0
-0.011554 -0.068148 0
-0.012613 -0.078380 0
-0.013792 -0.090017 0
-0.015108 -0.103152 0
-0.016571 -0.117814 0
-0.018185 -0.133935 0
-0.019940 -0.151304 0
-0.021811 -0.169523 0
-0.023745 -0.187967 0
-0.025663 -0.205762 0
-0.027454 -0.221799 0
-0.028977 -0.234796 0
-0.030075 -0.243425 0
-0.030593 -0.246492 0
-0.030400 -0.243155 0
-0.029426 -0.233126 0
-0.027677 -0.216793 0
-0.025244 -0.195212 0
-0.022292 -0.169952 0
-0.019031 -0.142817 0
-0.015676 -0.115541 0
-0.012414 -0.089520 0
-0.009377 -0.065658 0
-0.006634 -0.044323 0
-0.004196 -0.025380 0
-0.002018 -0.008230 0
0.000000 0.000000 0
0.000000 -0.000000 0
-0.000356 -0.000758 0
-0.000718 -0.001543 0
-0.001089 -0.002379 0
-0.001475 -0.003293 0
-0.001880 -0.004309 0
-0.002306 -0.005454 0
-0.002758 -0.006753 0
-0.003236 -0.008236 0
-0.003744 -0.009928 0
-0.004282 -0.011860 0
-0.004851 -0.014064 0
-0.005450 -0.016572 0
-0.006080 -0.019421 0
-0.006739 -0.022651 0
-0.007427 -0.026309 0
-0.008144 -0.030445 0
-0.008890 -0.035119 0
-0.009667 -0.040400 0
-0.010478 -0.046366 0
-0.011328 -0.053107 0
-0.012223 -0.060723 0
-0.013174 -0.069324 0
-0.014191 -0.079027 0
-0.015289 -0.089947 0
-0.016483 -0.102189 0
-0.017787 -0.115835 0
-0.019216 -0.130926 0
-0.020781 -0.147432 0
-0.022485 -0.165232 0
-0.024321 -0.184072 0
-0.026267 -0.203539 0
-0.028277 -0.223027 0
-0.030281 -0.241718 0
-0.032177 -0.258586 0
-0.033832 -0.272435 0
-0.035089 -0.281991 0
-0.035785 -0.286045 0
-0.035771 -0.283647 0
-0.034942 -0.274304 0
-0.033264 -0.258127 0
-0.030789 -0.235874 0
-0.027648 -0.208870 0
-0.024035 -0.178798 0
-0.020171 -0.147436 0
-0.016268 -0.116380 0
-0.012499 -0.086836 0
-0.008978 -0.059487 0
-0.005749 -0.034445 0
-0.002788 -0.011239 0
0.000000 0.000000 0
0.000000 -0.000000 0
-0.000465 -0.000974 0
-0.000936 -0.001980 0
-0.001419 -0.003051 0
-0.001920 -0.004219 0
-0.002442 -0.005514 0
-0.002989 -0.006969 0
-0.003566 -0.008614 0
-0.004173 -0.010482 0
-0.004812 -0.012605 0
-0.005483 -0.015015 0
-0.006186 -0.017746 0
-0.006920 -0.020832 0
-0.007681 -0.024310 0
-0.008468 -0.028219 0
-0.009277 -0.032603 0
-0.010106 -0.037508 0
-0.010954 -0.042988 0
-0.011819 -0.049104 0
-0.012703 -0.055922 0
-0.013609 -0.063520 0
-0.014542 -0.071980 0
-0.015510 -0.081391 0
-0.016525 -0.091845 0
-0.017598 -0.103428 0
-0.018746 -0.116220 0
-0.019985 -0.130275 0
-0.021332 -0.145615 0
-0.022800 -0.162208 0
-0.024402 -0.179946 0
-0.026137 -0.198618 0
-0.027995 -0.217880 0
-0.029945 -0.237214 0
-0.031927 -0.255904 0
-0.033852 -0.273017 0
-0.035594 -0.287418 0
-0.036996 -0.297844 0
-0.037885 -0.303038 0
-0.038096 -0.301943 0
-0.037498 -0.293910 0
-0.036029 -0.278861 0
-0.033710 -0.257358 0
-0.030644 -0.230529 0
-0.027000 -0.199893 0
-0.022986 -0.167122 0
-0.018812 -0.133796 0
-0.014661 -0.101200 0
-0.010668 -0.070174 0
-0.006906 -0.041021 0
-0.003376 -0.013458 0
0.000000 0.000000 0
0.000000 -0.000000 0
-0.000566 -0.001159 0
-0.001138 -0.002356 0
-0.001724 -0.003628 0
-0.002328 -0.005011 0
-0.002954 -0.006540 0
-0.003608 -0.008252 0
-0.004291 -0.010180 0
-0.005005 -0.012358 0
-0.005749 -0.014819 0
-0.006524 -0.017596 0
-0.007327 -0.020721 0
-0.008154 -0.024226 0
-0.009001 -0.028142 0
-0.009863 -0.032504 0
-0.010735 -0.037347 0
-0.011613 -0.042708 0
-0.012492 -0.048632 0
-0.013371 -0.055165 0
-0.014249 -0.062363 0
-0.015128 -0.070285 0
-0.016013 -0.079000 0
-0.016912 -0.088581 0
-0.017838 -0.099104 0
-0.018804 -0.110645 0
-0.019828 -0.123277 0
-0.020932 -0.137060 0
-0.022136 -0.152030 0
-0.023462 -0.168186 0
-0.024929 -0.185469 0
-0.026549 -0.203732 0
-0.028320 -0.222707 0
-0.030222 -0.241956 0
-0.032208 -0.260834 0
-0.034194 -0.278451 0
-0.036055 -0.293682 0
-0.037632 -0.305221 0
-0.038737 -0.311723 0
-0.039187 -0.312003 0
-0.038828 -0.305270 0
-0.037576 -0.291314 0
-0.035431 -0.270588 0
-0.032479 -0.244132 0
-0.028878 -0.213396 0
-0.024825 -0.179987 0
-0.020525 -0.145445 0
-0.016162 -0.111046 0
-0.011876 -0.077671 0
-0.007754 -0.045722 0
-0.003814 -0.015061 0
0.000000 0.000000 0
0.000000 -0.000000 0
-0.000658 -0.001310 0
-0.001322 -0.002662 0
-0.002000 -0.004095 0
-0.002695 -0.005649 0
-0.003413 -0.007364 0
-0.004156 -0.009275 0
-0.004926 -0.011418 0
-0.005724 -0.013828 0
-0.006549 -0.016536 0
-0.007398 -0.019572 0
-0.008266 -0.022964 0
-0.009150 -0.026739 0
-0.010041 -0.030923 0
-0.010934 -0.035541 0
-0.011822 -0.040621 0
-0.012698 -0.046192 0
-0.013559 -0.052286 0
-0.014399 -0.058940 0
-0.015221 -0.066200 0
-0.016025 -0.074116 0
-0.016817 -0.082748 0
-0.017608 -0.092163 0
-0.018412 -0.102437 0
-0.019245 -0.113649 0
-0.020130 -0.125882 0
-0.021091 -0.139215 0
-0.022156 -0.153714 0
-0.023353 -0.169417 0
-0.024708 -0.186316 0
-0.026241 -0.204323 0
-0.027960 -0.223229 0
-0.029852 -0.242656 0
-0.031879 -0.262001 0
-0.033961 -0.280397 0
-0.035974 -0.296703 0
-0.037751 -0.309551 0
-0.039094 -0.317490 0
-0.039795 -0.319193 0
-0.039680 -0.313722 0
-0.038639 -0.300740 0
-0.036654 -0.280619 0
-0.033804 -0.254374 0
-0.030242 -0.223453 0
-0.026165 -0.189478 0
-0.021778 -0.153988 0
-0.017266 -0.118257 0
-0.012773 -0.083177 0
-0.008389 -0.049190 0
-0.004144 -0.016248 0
0.000000 0.000000 0
0.000000 -0.000000 0
-0.000741 -0.001423 0
-0.001488 -0.002890 0
-0.002246 -0.004443 0
-0.003021 -0.006123 0
-0.003815 -0.007971 0
-0.004632 -0.010024 0
-0.005471 -0.012318 0
-0.006333 -0.014883 0
-0.007213 -0.017751 0
-0.008109 -0.020947 0
-0.009015 -0.024495 0
-0.009923 -0.028415 0
-0.010826 -0.032727 0
-0.011715 -0.037450 0
-0.012584 -0.042603 0
-0.013425 -0.048208 0
-0.014233 -0.054289 0
-0.015006 -0.060880 0
-0.015744 -0.068018 0
-0.016451 -0.075753 0
-0.017135 -0.084142 0
-0.017807 -0.093255 0
-0.018485 -0.103173 0
-0.019188 -0.113986 0
-0.019943 -0.125795 0
-0.020778 -0.138700 0
-0.021725 -0.152796 0
-0.022817 -0.168159 0
-0.024087 -0.184823 0
-0.025561 -0.202746 0
-0.027256 -0.221768 0
-0.029165 -0.241557 0
-0.031257 -0.261546 0
-0.033457 -0.280881 0
-0.035642 -0.298403 0
-0.037639 -0.312684 0
-0.039236 -0.322161 0
-0.040205 -0.325358 0
-0.040344 -0.321173 0
-0.039518 -0.309132 0
-0.037690 -0.289525 0
-0.034929 -0.263349 0
-0.031390 -0.232098 0
-0.027277 -0.197454 0
-0.022802 -0.161011 0
-0.018157 -0.124077 0
-0.013489 -0.087560 0
-0.008894 -0.051927 0
-0.004406 -0.017180 0
0.000000 0.000000 0
0.000000 -0.000000 0
-0.000815 -0.001496 0
-0.001634 -0.003037 0
-0.002463 -0.004666 0
-0.003306 -0.006427 0
-0.004164 -0.008358 0
-0.005039 -0.010497 0
-0.005930 -0.012879 0
-0.006836 -0.015533 0
-0.007752 -0.018485 0
-0.008673 -0.021757 0
-0.009592 -0.025370 0
-0.010500 -0.029337 0
-0.011389 -0.033672 0
-0.012251 -0.038390 0
-0.013077 -0.043504 0
-0.013862 -0.049030 0
-0.014600 -0.054991 0
-0.015290 -0.061416 0
-0.015935 -0.068342 0
-0.016539 -0.075820 0
-0.017112 -0.083910 0
-0.017669 -0.092688 0
-0.018229 -0.102244 0
-0.018815 -0.112680 0
-0.019455 -0.124111 0
-0.020182 -0.136660 0
-0.021030 -0.150446 0
-0.022039 -0.165576 0
-0.023244 -0.182118 0
-0.024678 -0.200069 0
-0.026364 -0.219312 0
-0.028304 -0.239556 0
-0.030473 -0.260269 0
-0.032801 -0.280617 0
-0.035170 -0.299427 0
-0.037401 -0.315219 0
-0.039268 -0.326319 0
-0.040523 -0.331099 0
-0.040934 -0.328276 0
-0.040337 -0.317219 0
-0.038672 -0.298117 0
-0.035998 -0.271952 0
-0.032471 -0.240272 0
-0.028307 -0.204852 0
-0.023732 -0.167383 0
-0.018949 -0.129239 0
-0.014114 -0.091372 0
-0.009328 -0.054271 0
-0.004630 -0.017973 0
0.000000 0.000000 0
0.000000 -0.000000 0
-0.000880 -0.001528 0
-0.001763 -0.003102 0
-0.002653 -0.004764 0
-0.003553 -0.006559 0
-0.004463 -0.008526 0
-0.005383 -0.010701 0
-0.006312 -0.013116 0
-0.007246 -0.015798 0
-0.008181 -0.018771 0
-0.009109 -0.022054 0
-0.010022 -0.025660 0
-0.010913 -0.029601 0
-0.011771 -0.033887 0
-0.012590 -0.038526 0
-0.013360 -0.043531 0
-0.014076 -0.048914 0
-0.014735 -0.054698 0
-0.015338 -0.060910 0
-0.015887 -0.067591 0
-0.016390 -0.074793 0
-0.016858 -0.082581 0
-0.017308 -0.091038 0
-0.017761 -0.100260 0
-0.018243 -0.110364 0
-0.018782 -0.121476 0
-0.019415 -0.133736 0
-0.020180 -0.147284 0
-0.021117 -0.162251 0
-0.022269 -0.178736 0
-0.023673 -0.196769 0
-0.025357 -0.216276 0
-0.027333 -0.237005 0
-0.029582 -0.258464 0
-0.032044 -0.279847 0
-0.034602 -0.299979 0
-0.037076 -0.317334 0
-0.039229 -0.330137 0
-0.040789 -0.336598 0
-0.041494 -0.335243 0
-0.041146 -0.325258 0
-0.039659 -0.306713 0
-0.037077 -0.280560 0
-0.033559 -0.248403 0
-0.029334 -0.212132 0
-0.024645 -0.173558 0
-0.019713 -0.134155 0
-0.014706 -0.094939 0
-0.009731 -0.056434 0
-0.004834 -0.018697 0
0.000000 0.000000 0
0.000000 -0.000000 0
-0.000937 -0.001519 0
-0.001877 -0.003084 0
-0.002820 -0.004738 0
-0.003767 -0.006524 0
-0.004719 -0.008482 0
-0.005673 -0.010646 0
-0.006628 -0.013046 0
-0.007578 -0.015709 0
-0.008518 -0.018653 0
-0.009439 -0.021893 0
-0.010335 -0.025442 0
-0.011195 -0.029307 0
-0.012012 -0.033494 0
-0.012776 -0.038011 0
-0.013482 -0.042867 0
-0.014125 -0.048076 0
-0.014704 -0.053658 0
-0.015218 -0.059644 0
-0.015674 -0.066076 0
-0.016081 -0.073010 0
-0.016451 -0.080514 0
-0.016803 -0.088678 0
-0.017159 -0.097606 0
-0.017545 -0.107421 0
-0.017995 -0.118262 0
-0.018544 -0.130282 0
-0.019233 -0.143637 0
-0.020107 -0.158479 0
-0.021210 -0.174933 0
-0.022585 -0.193065 0
-0.024269 -0.212837 0
-0.026280 -0.234044 0
-0.028608 -0.256239 0
-0.031203 -0.278650 0
-0.033953 -0.300115 0
-0.036678 -0.319071 0
-0.039131 -0.333648 0
-0.041017 -0.341894 0
-0.042041 -0.342130 0
-0.041967 -0.333338 0
-0.040678 -0.315439 0
-0.038201 -0.289339 0
-0.034695 -0.256696 0
-0.030401 -0.219524 0
-0.025585 -0.179776 0
-0.020490 -0.139051 0
-0.015299 -0.098449 0
-0.010131 -0.058539 0
-0.005035 -0.019398 0
0.000000 0.000000 0
0.000000 -0.000000 0
-0.000989 -0.001469 0
-0.001978 -0.002984 0
-0.002967 -0.004589 0
-0.003955 -0.006326 0
-0.004940 -0.008234 0
-0.005920 -0.010347 0
-0.006891 -0.012693 0
-0.007847 -0.015295 0
-0.008782 -0.018171 0
-0.009688 -0.021332 0
-0.010557 -0.024787 0
-0.011379 -0.028543 0
-0.012146 -0.032603 0
-0.012852 -0.036974 0
-0.013491 -0.041663 0
-0.014059 -0.046685 0
-0.014556 -0.052062 0
-0.014984 -0.057826 0
-0.015351 -0.064021 0
-0.015666 -0.070704 0
-0.015945 -0.077951 0
-0.016205 -0.085852 0
-0.016471 -0.094519 0
-0.016770 -0.104081 0
-0.017136 -0.114684 0
-0.017607 -0.126493 0
-0.018224 -0.139677 0
-0.019036 -0.154409 0
-0.020091 -0.170836 0
-0.021437 -0.189057 0
-0.023117 -0.209074 0
-0.025158 -0.230730 0
-0.027562 -0.253631 0
-0.030285 -0.277047 0
-0.033227 -0.299838 0
-0.036209 -0.320422 0
-0.038974 -0.336840 0
-0.041207 -0.346979 0
-0.042578 -0.348942 0
-0.042809 -0.341480 0
-0.041745 -0.324343 0
-0.039390 -0.298365 0
-0.035900 -0.265253 0
-0.031534 -0.227148 0
-0.026580 -0.186167 0
-0.021307 -0.144054 0
-0.015917 -0.102009 0
-0.010543 -0.060660 0
-0.005241 -0.020101 0
0.000000 0.000000 0
0.000000 -0.000000 0
-0.001036 -0.001378 0
-0.002070 -0.002803 0
-0.003100 -0.004319 0
-0.004123 -0.005969 0
-0.005136 -0.007791 0
-0.006135 -0.009818 0
-0.007116 -0.012076 0
-0.008071 -0.014586 0
-0.008995 -0.017364 0
-0.009879 -0.020419 0
-0.010714 -0.023758 0
-0.011493 -0.027385 0
-0.012207 -0.031303 0
-0.012852 -0.035517 0
-0.013421 -0.040035 0
-0.013914 -0.044872 0
-0.014332 -0.050051 0
-0.014677 -0.055605 0
-0.014958 -0.061579 0
-0.015186 -0.068034 0
-0.015377 -0.075047 0
-0.015551 -0.082713 0
-0.015731 -0.091145 0
-0.015947 -0.100479 0
-0.016232 -0.110866 0
-0.016626 -0.122479 0
-0.017173 -0.135502 0
-0.017922 -0.150120 0
-0.018926 -0.166508 0
-0.020239 -0.184794 0
-0.021909 -0.205023 0
-0.023973 -0.227088 0
-0.026444 -0.250650 0
-0.029291 -0.275034 0
-0.032422 -0.299136 0
-0.035664 -0.321364 0
-0.038754 -0.339683 0
-0.041356 -0.351823 0
-0.043103 -0.355656 0
-0.043672 -0.349682 0
-0.042863 -0.333443 0
-0.040653 -0.307679 0
-0.037191 -0.274130 0
-0.032751 -0.235076 0
-0.027649 -0.192809 0
-0.022181 -0.149239 0
-0.016576 -0.105684 0
-0.010980 -0.062840 0
-0.005458 -0.020822 0
0.000000 0.000000 0
0.000000 -0.000000 0
-0.001081 -0.001246 0
-0.002157 -0.002541 0
-0.003224 -0.003930 0
-0.004279 -0.005457 0
-0.005316 -0.007159 0
-0.006331 -0.009068 0
-0.007316 -0.011211 0
-0.008267 -0.013605 0
-0.009175 -0.016264 0
-0.010032 -0.019196 0
-0.010831 -0.022406 0
-0.011563 -0.025895 0
-0.012223 -0.029665 0
-0.012805 -0.033722 0
-0.013306 -0.038073 0
-0.013724 -0.042733 0
-0.014063 -0.047726 0
-0.014327 -0.053085 0
-0.014525 -0.058857 0
-0.014669 -0.065105 0
-0.014775 -0.071906 0
-0.014864 -0.079358 0
-0.014961 -0.087576 0
-0.015094 -0.096697 0
-0.015299 -0.106880 0
-0.015616 -0.118304 0
-0.016090 -0.131163 0
-0.016774 -0.145658 0
-0.017723 -0.161985 0
-0.018995 -0.180305 0
-0.020647 -0.200703 0
-0.022726 -0.223126 0
-0.025254 -0.247298 0
-0.028216 -0.272605 0
-0.031532 -0.297989 0
-0.035035 -0.321866 0
-0.038462 -0.342140 0
-0.041454 -0.356387 0
-0.043609 -0.362242 0
-0.044553 -0.357926 0
-0.044035 -0.342742 0
-0.041997 -0.317303 0
-0.038578 -0.283369 0
-0.034065 -0.243358 0
-0.028805 -0.199755 0
-0.023127 -0.154656 0
-0.017287 -0.109516 0
-0.011450 -0.065106 0
-0.005691 -0.021570 0
0.000000 0.000000 0
0.000000 -0.000000 0
-0.001125 -0.001072 0
-0.002243 -0.002196 0
-0.003347 -0.003420 0
-0.004432 -0.004789 0
-0.005491 -0.006340 0
-0.006519 -0.008106 0
-0.007508 -0.010111 0
-0.008451 -0.012371 0
-0.009340 -0.014897 0
-0.010169 -0.017695 0
-0.010929 -0.020769 0
-0.011614 -0.024118 0
-0.012218 -0.027743 0
-0.012737 -0.031648 0
-0.013169 -0.035841 0
-0.013514 -0.040336 0
-0.013775 -0.045157 0
-0.013959 -0.050339 0
-0.014074 -0.055928 0
-0.014135 -0.061987 0
-0.014157 -0.068595 0
-0.014162 -0.075849 0
-0.014175 -0.083866 0
-0.014225 -0.092787 0
-0.014349 -0.102772 0
-0.014586 -0.114006 0
-0.014984 -0.126693 0
-0.015597 -0.141048 0
-0.016483 -0.157288 0
-0.017707 -0.175605 0
-0.019332 -0.196126 0
-0.021414 -0.218853 0
-0.023990 -0.243574 0
-0.027056 -0.269748 0
-0.030550 -0.296377 0
-0.034314 -0.321898 0
-0.038086 -0.344171 0
-0.041490 -0.360627 0
-0.044086 -0.368659 0
-0.045446 -0.366186 0
-0.045260 -0.352234 0
-0.043427 -0.327253 0
-0.040069 -0.293001 0
-0.035488 -0.252034 0
-0.030061 -0.207049 0
-0.024155 -0.160345 0
-0.018059 -0.113536 0
-0.011960 -0.067481 0
-0.005943 -0.022352 0
0.000000 0.000000 0
0.000000 -0.000000 0
-0.001170 -0.000853 0
-0.002331 -0.001763 0
-0.003474 -0.002784 0
-0.004590 -0.003961 0
-0.005672 -0.005334 0
-0.006713 -0.006933 0
-0.007704 -0.008781 0
-0.008639 -0.010892 0
-0.009510 -0.013277 0
-0.010309 -0.015938 0
-0.011030 -0.018874 0
-0.011667 -0.022087 0
-0.012215 -0.025573 0
-0.012670 -0.029336 0
-0.013033 -0.033384 0
-0.013304 -0.037729 0
-0.013487 -0.042395 0
-0.013591 -0.047416 0
-0.013624 -0.052839 0
-0.013600 -0.058726 0
-0.013538 -0.065156 0
-0.013457 -0.072226 0
-0.013384 -0.080053 0
-0.013349 -0.088779 0
-0.013387 -0.098568 0
-0.013540 -0.109609 0
-0.013857 -0.122112 0
-0.014392 -0.136308 0
-0.015209 -0.152433 0
-0.016376 -0.170707 0
-0.017963 -0.191301 0
-0.020036 -0.214272 0
-0.022646 -0.239477 0
-0.025805 -0.266455 0
-0.029467 -0.294279 0
-0.033490 -0.321427 0
-0.037613 -0.345731 0
-0.041450 -0.364493 0
-0.044522 -0.374860 0
-0.046342 -0.374427 0
-0.046535 -0.361903 0
-0.044945 -0.337536 0
-0.041673 -0.303053 0
-0.037029 -0.261144 0
-0.031428 -0.214731 0
-0.025277 -0.166344 0
-0.018902 -0.117773 0
-0.012516 -0.069982 0
-0.006217 -0.023176 0
0.000000 0.000000 0
0.000000 -0.000000 0
-0.001220 -0.000585 0
-0.002428 -0.001237 0
-0.003612 -0.002014 0
-0.004763 -0.002965 0
-0.005870 -0.004131 0
-0.006926 -0.005542 0
-0.007921 -0.007218 0
-0.008849 -0.009173 0
-0.009701 -0.011411 0
-0.010472 -0.013934 0
-0.011153 -0.016739 0
-0.011741 -0.019822 0
-0.012232 -0.023181 0
-0.012624 -0.026816 0
-0.012916 -0.030732 0
-0.013112 -0.034943 0
-0.013217 -0.039471 0
-0.013238 -0.044348 0
-0.013187 -0.049622 0
-0.013077 -0.055352 0
-0.012927 -0.061617 0
-0.012758 -0.068514 0
-0.012596 -0.076160 0
-0.012471 -0.084696 0
-0.012419 -0.094288 0
-0.012482 -0.105128 0
-0.012711 -0.117436 0
-0.013162 -0.131452 0
-0.013900 -0.147431 0
-0.014999 -0.165622 0
-0.016537 -0.186236 0
-0.018588 -0.209389 0
-0.021217 -0.235009 0
-0.024455 -0.262719 0
-0.028273 -0.291678 0
-0.032549 -0.320422 0
-0.037030 -0.346776 0
-0.041319 -0.367930 0
-0.044902 -0.380790 0
-0.047229 -0.382606 0
-0.047853 -0.371731 0
-0.046552 -0.348157 0
-0.043395 -0.313550 0
-0.038700 -0.270725 0
-0.032918 -0.222843 0
-0.026502 -0.172689 0
-0.019823 -0.122256 0
-0.013124 -0.072626 0
-0.006517 -0.024046 0
0.000000 0.000000 0
0.000000 -0.000000 0
-0.001276 -0.000262 0
-0.002537 -0.000605 0
-0.003770 -0.001095 0
-0.004960 -0.001785 0
-0.006097 -0.002716 0
-0.007172 -0.003919 0
-0.008174 -0.005412 0
-0.009097 -0.007204 0
-0.009933 -0.009297 0
-0.010675 -0.011687 0
-0.011317 -0.014369 0
-0.011857 -0.017335 0
-0.012290 -0.020580 0
-0.012616 -0.024102 0
-0.012837 -0.027904 0
-0.012956 -0.031998 0
-0.012979 -0.036405 0
-0.012915 -0.041156 0
-0.012775 -0.046295 0
-0.012576 -0.051883 0
-0.012334 -0.057996 0
-0.012071 -0.064730 0
-0.011815 -0.072200 0
-0.011594 -0.080549 0
-0.011446 -0.089942 0
-0.011413 -0.100576 0
-0.011546 -0.112674 0
-0.011904 -0.126489 0
-0.012554 -0.142292 0
-0.013575 -0.160359 0
-0.015049 -0.180942 0
-0.017065 -0.204210 0
-0.019698 -0.230170 0
-0.022998 -0.258534 0
-0.026960 -0.288556 0
-0.031480 -0.318850 0
-0.036321 -0.347258 0
-0.041080 -0.370880 0
-0.045208 -0.386388 0
-0.048095 -0.390672 0
-0.049207 -0.381686 0
-0.048248 -0.359114 0
-0.045244 -0.324516 0
-0.040512 -0.280817 0
-0.034542 -0.231430 0
-0.027843 -0.179423 0