# vtk DataFile Version 2.0
generated by CFD-lab course output (written by Tobias Neckel) 
ASCII

DATASET STRUCTURED_GRID
DIMENSIONS  51 51 1 
POINTS 2601 float

0.000000 0.000000 0
0.020000 0.000000 0
0.040000 0.000000 0
0.060000 0.000000 0
0.080000 0.000000 0
0.100000 0.000000 0
0.120000 0.000000 0
0.140000 0.000000 0
0.160000 0.000000 0
0.180000 0.000000 0
0.200000 0.000000 0
0.220000 0.000000 0
0.240000 0.000000 0
0.260000 0.000000 0
0.280000 0.000000 0
0.300000 0.000000 0
0.320000 0.000000 0
0.340000 0.000000 0
0.360000 0.000000 0
0.380000 0.000000 0
0.400000 0.000000 0
0.420000 0.000000 0
0.440000 0.000000 0
0.460000 0.000000 0
0.480000 0.000000 0
0.500000 0.000000 0
0.520000 0.000000 0
0.540000 0.000000 0
0.560000 0.000000 0
0.580000 0.000000 0
0.600000 0.000000 0
0.620000 0.000000 0
0.640000 0.000000 0
0.660000 0.000000 0
0.680000 0.000000 0
0.700000 0.000000 0
0.720000 0.000000 0
0.740000 0.000000 0
0.760000 0.000000 0
0.780000 0.000000 0
0.800000 0.000000 0
0.820000 0.000000 0
0.840000 0.000000 0
0.860000 0.000000 0
0.880000 0.000000 0
0.900000 0.000000 0
0.920000 0.000000 0
0.940000 0.000000 0
0.960000 0.000000 0
0.980000 0.000000 0
1.000000 0.000000 0
0.000000 0.020000 0
0.020000 0.020000 0
0.040000 0.020000 0
0.060000 0.020000 0
0.080000 0.020000 0
0.100000 0.020000 0
0.120000 0.020000 0
0.140000 0.020000 0
0.160000 0.020000 0
0.180000 0.020000 0
0.200000 0.020000 0
0.220000 0.020000 0
0.240000 0.020000 0
0.260000 0.020000 0
0.280000 0.020000 0
0.300000 0.020000 0
0.320000 0.020000 0
0.340000 0.020000 0
0.360000 0.020000 0
0.380000 0.020000 0
0.400000 0.020000 0
0.420000 0.020000 0
0.440000 0.020000 0
0.460000 0.020000 0
0.480000 0.020000 0
0.500000 0.020000 0
0.520000 0.020000 0
0.540000 0.020000 0
0.560000 0.020000 0
0.580000 0.020000 0
0.600000 0.020000 0
0.620000 0.020000 0
0.640000 0.020000 0
0.660000 0.020000 0
0.680000 0.020000 0
0.700000 0.020000 0
0.720000 0.020000 0
0.740000 0.020000 0
0.760000 0.020000 0
0.780000 0.020000 0
0.800000 0.020000 0
0.820000 0.020000 0
0.840000 0.020000 0
0.860000 0.020000 0
0.880000 0.020000 0
0.900000 0.020000 0
0.920000 0.020000 0
0.940000 0.020000 0
0.960000 0.020000 0
0.980000 0.020000 0
1.000000 0.020000 0
0.000000 0.040000 0
0.020000 0.040000 0
0.040000 0.040000 0
0.060000 0.040000 0
0.080000 0.040000 0
0.100000 0.040000 0
0.120000 0.040000 0
0.140000 0.040000 0
0.160000 0.040000 0
0.180000 0.040000 0
0.200000 0.040000 0
0.220000 0.040000 0
0.240000 0.040000 0
0.260000 0.040000 0
0.280000 0.040000 0
0.300000 0.040000 0
0.320000 0.040000 0
0.340000 0.040000 0
0.360000 0.040000 0
0.380000 0.040000 0
0.400000 0.040000 0
0.420000 0.040000 0
0.440000 0.040000 0
0.460000 0.040000 0
0.480000 0.040000 0
0.500000 0.040000 0
0.520000 0.040000 0
0.540000 0.040000 0
0.560000 0.040000 0
0.580000 0.040000 0
0.600000 0.040000 0
0.620000 0.040000 0
0.640000 0.040000 0
0.660000 0.040000 0
0.680000 0.040000 0
0.700000 0.040000 0
0.720000 0.040000 0
0.740000 0.040000 0
0.760000 0.040000 0
0.780000 0.040000 0
0.800000 0.040000 0
0.820000 0.040000 0
0.840000 0.040000 0
0.860000 0.040000 0
0.880000 0.040000 0
0.900000 0.040000 0
0.920000 0.040000 0
0.940000 0.040000 0
0.960000 0.040000 0
0.980000 0.040000 0
1.000000 0.040000 0
0.000000 0.060000 0
0.020000 0.060000 0
0.040000 0.060000 0
0.060000 0.060000 0
0.080000 0.060000 0
0.100000 0.060000 0
0.120000 0.060000 0
0.140000 0.060000 0
0.160000 0.060000 0
0.180000 0.060000 0
0.200000 0.060000 0
0.220000 0.060000 0
0.240000 0.060000 0
0.260000 0.060000 0
0.280000 0.060000 0
0.300000 0.060000 0
0.320000 0.060000 0
0.340000 0.060000 0
0.360000 0.060000 0
0.380000 0.060000 0
0.400000 0.060000 0
0.420000 0.060000 0
0.440000 0.060000 0
0.460000 0.060000 0
0.480000 0.060000 0
0.500000 0.060000 0
0.520000 0.060000 0
0.540000 0.060000 0
0.560000 0.060000 0
0.580000 0.060000 0
0.600000 0.060000 0
0.620000 0.060000 0
0.640000 0.060000 0
0.660000 0.060000 0
0.680000 0.060000 0
0.700000 0.060000 0
0.720000 0.060000 0
0.740000 0.060000 0
0.760000 0.060000 0
0.780000 0.060000 0
0.800000 0.060000 0
0.820000 0.060000 0
0.840000 0.060000 0
0.860000 0.060000 0
0.880000 0.060000 0
0.900000 0.060000 0
0.920000 0.060000 0
0.940000 0.060000 0
0.960000 0.060000 0
0.980000 0.060000 0
1.000000 0.060000 0
0.000000 0.080000 0
0.020000 0.080000 0
0.040000 0.080000 0
0.060000 0.080000 0
0.080000 0.080000 0
0.100000 0.080000 0
0.120000 0.080000 0
0.140000 0.080000 0
0.160000 0.080000 0
0.180000 0.080000 0
0.200000 0.080000 0
0.220000 0.080000 0
0.240000 0.080000 0
0.260000 0.080000 0
0.280000 0.080000 0
0.300000 0.080000 0
0.320000 0.080000 0
0.340000 0.080000 0
0.360000 0.080000 0
0.380000 0.080000 0
0.400000 0.080000 0
0.420000 0.080000 0
0.440000 0.080000 0
0.460000 0.080000 0
0.480000 0.080000 0
0.500000 0.080000 0
0.520000 0.080000 0
0.540000 0.080000 0
0.560000 0.080000 0
0.580000 0.080000 0
0.600000 0.080000 0
0.620000 0.080000 0
0.640000 0.080000 0
0.660000 0.080000 0
0.680000 0.080000 0
0.700000 0.080000 0
0.720000 0.080000 0
0.740000 0.080000 0
0.760000 0.080000 0
0.780000 0.080000 0
0.800000 0.080000 0
0.820000 0.080000 0
0.840000 0.080000 0
0.860000 0.080000 0
0.880000 0.080000 0
0.900000 0.080000 0
0.920000 0.080000 0
0.940000 0.080000 0
0.960000 0.080000 0
0.980000 0.080000 0
1.000000 0.080000 0
0.000000 0.100000 0
0.020000 0.100000 0
0.040000 0.100000 0
0.060000 0.100000 0
0.080000 0.100000 0
0.100000 0.100000 0
0.120000 0.100000 0
0.140000 0.100000 0
0.160000 0.100000 0
0.180000 0.100000 0
0.200000 0.100000 0
0.220000 0.100000 0
0.240000 0.100000 0
0.260000 0.100000 0
0.280000 0.100000 0
0.300000 0.100000 0
0.320000 0.100000 0
0.340000 0.100000 0
0.360000 0.100000 0
0.380000 0.100000 0
0.400000 0.100000 0
0.420000 0.100000 0
0.440000 0.100000 0
0.460000 0.100000 0
0.480000 0.100000 0
0.500000 0.100000 0
0.520000 0.100000 0
0.540000 0.100000 0
0.560000 0.100000 0
0.580000 0.100000 0
0.600000 0.100000 0
0.620000 0.100000 0
0.640000 0.100000 0
0.660000 0.100000 0
0.680000 0.100000 0
0.700000 0.100000 0
0.720000 0.100000 0
0.740000 0.100000 0
0.760000 0.100000 0
0.780000 0.100000 0
0.800000 0.100000 0
0.820000 0.100000 0
0.840000 0.100000 0
0.860000 0.100000 0
0.880000 0.100000 0
0.900000 0.100000 0
0.920000 0.100000 0
0.940000 0.100000 0
0.960000 0.100000 0
0.980000 0.100000 0
1.000000 0.100000 0
0.000000 0.120000 0
0.020000 0.120000 0
0.040000 0.120000 0
0.060000 0.120000 0
0.080000 0.120000 0
0.100000 0.120000 0
0.120000 0.120000 0
0.140000 0.120000 0
0.160000 0.120000 0
0.180000 0.120000 0
0.200000 0.120000 0
0.220000 0.120000 0
0.240000 0.120000 0
0.260000 0.120000 0
0.280000 0.120000 0
0.300000 0.120000 0
0.320000 0.120000 0
0.340000 0.120000 0
0.360000 0.120000 0
0.380000 0.120000 0
0.400000 0.120000 0
0.420000 0.120000 0
0.440000 0.120000 0
0.460000 0.120000 0
0.480000 0.120000 0
0.500000 0.120000 0
0.520000 0.120000 0
0.540000 0.120000 0
0.560000 0.120000 0
0.580000 0.120000 0
0.600000 0.120000 0
0.620000 0.120000 0
0.640000 0.120000 0
0.660000 0.120000 0
0.680000 0.120000 0
0.700000 0.120000 0
0.720000 0.120000 0
0.740000 0.120000 0
0.760000 0.120000 0
0.780000 0.120000 0
0.800000 0.120000 0
0.820000 0.120000 0
0.840000 0.120000 0
0.860000 0.120000 0
0.880000 0.120000 0
0.900000 0.120000 0
0.920000 0.120000 0
0.940000 0.120000 0
0.960000 0.120000 0
0.980000 0.120000 0
1.000000 0.120000 0
0.000000 0.140000 0
0.020000 0.140000 0
0.040000 0.140000 0
0.060000 0.140000 0
0.080000 0.140000 0
0.100000 0.140000 0
0.120000 0.140000 0
0.140000 0.140000 0
0.160000 0.140000 0
0.180000 0.140000 0
0.200000 0.140000 0
0.220000 0.140000 0
0.240000 0.140000 0
0.260000 0.140000 0
0.280000 0.140000 0
0.300000 0.140000 0
0.320000 0.140000 0
0.340000 0.140000 0
0.360000 0.140000 0
0.380000 0.140000 0
0.400000 0.140000 0
0.420000 0.140000 0
0.440000 0.140000 0
0.460000 0.140000 0
0.480000 0.140000 0
0.500000 0.140000 0
0.520000 0.140000 0
0.540000 0.140000 0
0.560000 0.140000 0
0.580000 0.140000 0
0.600000 0.140000 0
0.620000 0.140000 0
0.640000 0.140000 0
0.660000 0.140000 0
0.680000 0.140000 0
0.700000 0.140000 0
0.720000 0.140000 0
0.740000 0.140000 0
0.760000 0.140000 0
0.780000 0.140000 0
0.800000 0.140000 0
0.820000 0.140000 0
0.840000 0.140000 0
0.860000 0.140000 0
0.880000 0.140000 0
0.900000 0.140000 0
0.920000 0.140000 0
0.940000 0.140000 0
0.960000 0.140000 0
0.980000 0.140000 0
1.000000 0.140000 0
0.000000 0.160000 0
0.020000 0.160000 0
0.040000 0.160000 0
0.060000 0.160000 0
0.080000 0.160000 0
0.100000 0.160000 0
0.120000 0.160000 0
0.140000 0.160000 0
0.160000 0.160000 0
0.180000 0.160000 0
0.200000 0.160000 0
0.220000 0.160000 0
0.240000 0.160000 0
0.260000 0.160000 0
0.280000 0.160000 0
0.300000 0.160000 0
0.320000 0.160000 0
0.340000 0.160000 0
0.360000 0.160000 0
0.380000 0.160000 0
0.400000 0.160000 0
0.420000 0.160000 0
0.440000 0.160000 0
0.460000 0.160000 0
0.480000 0.160000 0
0.500000 0.160000 0
0.520000 0.160000 0
0.540000 0.160000 0
0.560000 0.160000 0
0.580000 0.160000 0
0.600000 0.160000 0
0.620000 0.160000 0
0.640000 0.160000 0
0.660000 0.160000 0
0.680000 0.160000 0
0.700000 0.160000 0
0.720000 0.160000 0
0.740000 0.160000 0
0.760000 0.160000 0
0.780000 0.160000 0
0.800000 0.160000 0
0.820000 0.160000 0
0.840000 0.160000 0
0.860000 0.160000 0
0.880000 0.160000 0
0.900000 0.160000 0
0.920000 0.160000 0
0.940000 0.160000 0
0.960000 0.160000 0
0.980000 0.160000 0
1.000000 0.160000 0
0.000000 0.180000 0
0.020000 0.180000 0
0.040000 0.180000 0
0.060000 0.180000 0
0.080000 0.180000 0
0.100000 0.180000 0
0.120000 0.180000 0
0.140000 0.180000 0
0.160000 0.180000 0
0.180000 0.180000 0
0.200000 0.180000 0
0.220000 0.180000 0
0.240000 0.180000 0
0.260000 0.180000 0
0.280000 0.180000 0
0.300000 0.180000 0
0.320000 0.180000 0
0.340000 0.180000 0
0.360000 0.180000 0
0.380000 0.180000 0
0.400000 0.180000 0
0.420000 0.180000 0
0.440000 0.180000 0
0.460000 0.180000 0
0.480000 0.180000 0
0.500000 0.180000 0
0.520000 0.180000 0
0.540000 0.180000 0
0.560000 0.180000 0
0.580000 0.180000 0
0.600000 0.180000 0
0.620000 0.180000 0
[...]
POINT_DATA 2601 

VECTORS velocity float
0.000000 0.000000 0
0.000000 0.000000 0
0.000000 0.000000 0
0.000000 0.000000 0
0.000000 0.000000 0
0.000000 0.000000 0
0.000000 0.000000 0
0.000000 0.000000 0
0.000000 0.000000 0
0.000000 0.000000 0
0.000000 0.000000 0
0.000000 0.000000 0
0.000000 0.000000 0
0.000000 0.000000 0
0.000000 0.000000 0
0.000000 0.000000 0
0.000000 0.000000 0
0.000000 0.000000 0
0.000000 0.000000 0
0.000000 0.000000 0
0.000000 0.000000 0
0.000000 0.000000 0
0.000000 0.000000 0
0.000000 0.000000 0
0.000000 0.000000 0
0.000000 0.000000 0
0.000000 0.000000 0
0.000000 0.000000 0
0.000000 0.000000 0
0.000000 0.000000 0
0.000000 0.000000 0
0.000000 0.000000 0
0.000000 0.000000 0
0.000000 0.000000 0
0.000000 0.000000 0
0.000000 0.000000 0
0.000000 0.000000 0
0.000000 0.000000 0
0.000000 0.000000 0
0.000000 0.000000 0
0.000000 0.000000 0
0.000000 0.000000 0
0.000000 0.000000 0
0.000000 0.000000 0
0.000000 0.000000 0
0.000000 0.000000 0
0.000000 0.000000 0
0.000000 0.000000 0
0.000000 0.000000 0
0.000000 0.000000 0
0.000000 0.000000 0
0.000000 0.000000 0
-0.000046 -0.000193 0
-0.000093 -0.000391 0
-0.000140 -0.000599 0
-0.000187 -0.000824 0
-0.000235 -0.001071 0
-0.000283 -0.001347 0
-0.000333 -0.001658 0
-0.000384 -0.002012 0
-0.000437 -0.002419 0
-0.000492 -0.002890 0
-0.000551 -0.003436 0
-0.000615 -0.004074 0
-0.000685 -0.004822 0
-0.000763 -0.005700 0
-0.000850 -0.006735 0
-0.000951 -0.007959 0
-0.001067 -0.009411 0
-0.001205 -0.011135 0
-0.001368 -0.013189 0
-0.001563 -0.015640 0
-0.001799 -0.018566 0
-0.002085 -0.022062 0
-0.002432 -0.026238 0
-0.002855 -0.031215 0
-0.003368 -0.037128 0
-0.003987 -0.044114 0
-0.004731 -0.052301 0
-0.005615 -0.061787 0
-0.006649 -0.072606 0
-0.007837 -0.084690 0
-0.009167 -0.097814 0
-0.010607 -0.111547 0
-0.012098 -0.125215 0
-0.013555 -0.137895 0
-0.014863 -0.148469 0
-0.015892 -0.155760 0
-0.016516 -0.158721 0
-0.016633 -0.156671 0
-0.016196 -0.149481 0
-0.015222 -0.137655 0
-0.013798 -0.122250 0
-0.012057 -0.104666 0
-0.010157 -0.086355 0
-0.008242 -0.068564 0
-0.006427 -0.052174 0
-0.004783 -0.037646 0
-0.003339 -0.025064 0
-0.002088 -0.014202 0
-0.000996 -0.004578 0
0.000000 0.000000 0
0.000000 0.000000 0
-0.000092 -0.000379 0
-0.000185 -0.000769 0
-0.000278 -0.001180 0
-0.000372 -0.001622 0
-0.000466 -0.002107 0
-0.000563 -0.002648 0
-0.000660 -0.003257 0
-0.000761 -0.003950 0
-0.000864 -0.004745 0
-0.000973 -0.005662 0
-0.001088 -0.006725 0
-0.001211 -0.007962 0
-0.001345 -0.009405 0
-0.001493 -0.011095 0
-0.001660 -0.013079 0
-0.001850 -0.015411 0
-0.002068 -0.018160 0
-0.002324 -0.021404 0
-0.002625 -0.025237 0
-0.002982 -0.029766 0
-0.003410 -0.035119 0
-0.003922 -0.041436 0
-0.004537 -0.048874 0
-0.005275 -0.057600 0
-0.006157 -0.067779 0
-0.007206 -0.079563 0
-0.008443 -0.093065 0
-0.009885 -0.108329 0
-0.011541 -0.125289 0
-0.013405 -0.143723 0
-0.015453 -0.163208 0
-0.017632 -0.183075 0
-0.019860 -0.202396 0
-0.022018 -0.219999 0
-0.023959 -0.234534 0
-0.025512 -0.244607 0
-0.026511 -0.248960 0
-0.026811 -0.246696 0
-0.026327 -0.237475 0
-0.025050 -0.221650 0
-0.023060 -0.200259 0
-0.020512 -0.174879 0
-0.017608 -0.147352 0
-0.014561 -0.119477 0
-0.011561 -0.092729 0
-0.008745 -0.068093 0
-0.006191 -0.045998 0
-0.003916 -0.026347 0
-0.001882 -0.008544 0
0.000000 0.000000 0
0.000000 0.000000 0
-0.000137 -0.000554 0
-0.000275 -0.001124 0
-0.000414 -0.001723 0
-0.000553 -0.002368 0
-0.000693 -0.003075 0
-0.000834 -0.003861 0
-0.000978 -0.004745 0
-0.001124 -0.005749 0
-0.001275 -0.006897 0
-0.001432 -0.008217 0
-0.001596 -0.009741 0
-0.001772 -0.011506 0
-0.001961 -0.013557 0
-0.002168 -0.015943 0
-0.002399 -0.018726 0
-0.002659 -0.021975 0
-0.002956 -0.025771 0
-0.003299 -0.030207 0
-0.003698 -0.035391 0
-0.004167 -0.041443 0
-0.004721 -0.048495 0
-0.005375 -0.056690 0
-0.006149 -0.066175 0
-0.007063 -0.077093 0
-0.008138 -0.089572 0
-0.009394 -0.103706 0
-0.010850 -0.119535 0
-0.012518 -0.137021 0
-0.014402 -0.156012 0
-0.016491 -0.176216 0
-0.018758 -0.197169 0
-0.021151 -0.218209 0
-0.023589 -0.238464 0
-0.025960 -0.256856 0
-0.028119 -0.272147 0
-0.029899 -0.283026 0
-0.031127 -0.288254 0
-0.031642 -0.286855 0
-0.031332 -0.278307 0
-0.030155 -0.262695 0
-0.028154 -0.240754 0
-0.025454 -0.213794 0
-0.022243 -0.183502 0
-0.018739 -0.151681 0
-0.015153 -0.119979 0
-0.011661 -0.089668 0
-0.008382 -0.061498 0
-0.005368 -0.035634 0
-0.002603 -0.011630 0
0.000000 0.000000 0
0.000000 0.000000 0
-0.000182 -0.000713 0
-0.000363 -0.001444 0
-0.000545 -0.002214 0
-0.000728 -0.003041 0
-0.000911 -0.003946 0
-0.001096 -0.004950 0
-0.001282 -0.006077 0
-0.001470 -0.007353 0
-0.001663 -0.008806 0
-0.001862 -0.010471 0
-0.002068 -0.012384 0
-0.002286 -0.014589 0
-0.002519 -0.017134 0
-0.002770 -0.020075 0
-0.003047 -0.023478 0
-0.003355 -0.027416 0
-0.003703 -0.031972 0
-0.004099 -0.037239 0
-0.004555 -0.043319 0
-0.005083 -0.050324 0
-0.005698 -0.058369 0
-0.006415 -0.067574 0
-0.007251 -0.078053 0
-0.008226 -0.089910 0
-0.009358 -0.103228 0
-0.010664 -0.118053 0
-0.012160 -0.134386 0
-0.013859 -0.152160 0
-0.015763 -0.171224 0
-0.017867 -0.191318 0
-0.020150 -0.212045 0
-0.022569 -0.232845 0
-0.025055 -0.252960 0
-0.027505 -0.271426 0
-0.029785 -0.287087 0
-0.031728 -0.298661 0
-0.033152 -0.304875 0
-0.033884 -0.304656 0
-0.033789 -0.297337 0
-0.032801 -0.282825 0
-0.030937 -0.261663 0
-0.028297 -0.234963 0
-0.025050 -0.204234 0
-0.021399 -0.171150 0
-0.017555 -0.137314 0
-0.013702 -0.104052 0
-0.009979 -0.072255 0
-0.006462 -0.042278 0
-0.003158 -0.013877 0
0.000000 0.000000 0
0.000000 0.000000 0
-0.000224 -0.000850 0
-0.000449 -0.001722 0
-0.000673 -0.002638 0
-0.000897 -0.003621 0
-0.001121 -0.004695 0
-0.001345 -0.005884 0
-0.001569 -0.007216 0
-0.001796 -0.008718 0
-0.002024 -0.010423 0
-0.002258 -0.012367 0
-0.002498 -0.014590 0
-0.002748 -0.017136 0
-0.003011 -0.020055 0
-0.003292 -0.023404 0
-0.003597 -0.027247 0
-0.003932 -0.031652 0
-0.004304 -0.036698 0
-0.004722 -0.042468 0
-0.005197 -0.049051 0
-0.005741 -0.056540 0
-0.006366 -0.065032 0
-0.007087 -0.074619 0
-0.007921 -0.085389 0
-0.008883 -0.097419 0
-0.009992 -0.110768 0
-0.011266 -0.125473 0
-0.012720 -0.141535 0
-0.014369 -0.158914 0
-0.016223 -0.177503 0
-0.018283 -0.197114 0
-0.020537 -0.217436 0
-0.022954 -0.238003 0
-0.025474 -0.258143 0
-0.028004 -0.276951 0
-0.030410 -0.293286 0
-0.032524 -0.305833 0
-0.034153 -0.313231 0
-0.035105 -0.314284 0
-0.035224 -0.308187 0
-0.034422 -0.294718 0
-0.032699 -0.274318 0
-0.030143 -0.248016 0
-0.026912 -0.217250 0
-0.023203 -0.183626 0
-0.019222 -0.148686 0
-0.015155 -0.113727 0
-0.011144 -0.079667 0
-0.007277 -0.046948 0
-0.003579 -0.015474 0
0.000000 0.000000 0
0.000000 0.000000 0
-0.000266 -0.000962 0
-0.000531 -0.001948 0
-0.000795 -0.002984 0
-0.001059 -0.004094 0
-0.001321 -0.005305 0
-0.001581 -0.006643 0
-0.001840 -0.008137 0
-0.002099 -0.009817 0
-0.002358 -0.011717 0
-0.002619 -0.013873 0
-0.002884 -0.016325 0
-0.003156 -0.019117 0
-0.003438 -0.022297 0
-0.003735 -0.025917 0
-0.004051 -0.030038 0
-0.004393 -0.034720 0
-0.004768 -0.040032 0
-0.005183 -0.046046 0
-0.005650 -0.052838 0
-0.006178 -0.060484 0
-0.006779 -0.069063 0
-0.007468 -0.078653 0
-0.008260 -0.089325 0
-0.009172 -0.101150 0
-0.010222 -0.114187 0
-0.011429 -0.128484 0
-0.012813 -0.144070 0
-0.014392 -0.160946 0
-0.016183 -0.179062 0
-0.018194 -0.198298 0
-0.020424 -0.218416 0
-0.022849 -0.239017 0
-0.025420 -0.259485 0
-0.028047 -0.278940 0
-0.030601 -0.296230 0
-0.032905 -0.309978 0
-0.034754 -0.318719 0
-0.035936 -0.321115 0
-0.036272 -0.316215 0
-0.035651 -0.303672 0
-0.034057 -0.283851 0
-0.031569 -0.257759 0
-0.028345 -0.226838 0
-0.024584 -0.192704 0
-0.020495 -0.156896 0
-0.016264 -0.120696 0
-0.012036 -0.085018 0
-0.007906 -0.050334 0
-0.003905 -0.016636 0
0.000000 0.000000 0
0.000000 0.000000 0
-0.000306 -0.001046 0
-0.000611 -0.002118 0
-0.000914 -0.003244 0
-0.001215 -0.004449 0
-0.001512 -0.005762 0
-0.001805 -0.007211 0
-0.002095 -0.008824 0
-0.002382 -0.010634 0
-0.002665 -0.012674 0
-0.002947 -0.014978 0
-0.003229 -0.017585 0
-0.003514 -0.020537 0
-0.003804 -0.023877 0
-0.004104 -0.027655 0
-0.004418 -0.031921 0
-0.004753 -0.036731 0
-0.005114 -0.042143 0
-0.005509 -0.048219 0
-0.005947 -0.055023 0
-0.006439 -0.062621 0
-0.006996 -0.071083 0
-0.007633 -0.080477 0
-0.008365 -0.090876 0
-0.009209 -0.102351 0
-0.010186 -0.114976 0
-0.011317 -0.128821 0
-0.012625 -0.143946 0
-0.014133 -0.160394 0
-0.015865 -0.178167 0
-0.017835 -0.197199 0
-0.020050 -0.217310 0
-0.022496 -0.238152 0
-0.025129 -0.259149 0
-0.027868 -0.279438 0
-0.030582 -0.297849 0
-0.033092 -0.312945 0
-0.035177 -0.323150 0
-0.036605 -0.326975 0
-0.037171 -0.323308 0
-0.036738 -0.311664 0
-0.035271 -0.292330 0
-0.032842 -0.266300 0
-0.029610 -0.235061 0
-0.025783 -0.200294 0
-0.021580 -0.163590 0
-0.017194 -0.126258 0
-0.012777 -0.089221 0
-0.008423 -0.052967 0
-0.004172 -0.017535 0
0.000000 0.000000 0
0.000000 0.000000 0
-0.000345 -0.001100 0
-0.000688 -0.002228 0
-0.001029 -0.003411 0
-0.001365 -0.004679 0
-0.001695 -0.006059 0
-0.002019 -0.007580 0
-0.002336 -0.009272 0
-0.002646 -0.011166 0
-0.002949 -0.013293 0
-0.003245 -0.015688 0
-0.003538 -0.018386 0
-0.003827 -0.021425 0
-0.004117 -0.024845 0
-0.004411 -0.028688 0
-0.004713 -0.033001 0
-0.005029 -0.037831 0
-0.005364 -0.043228 0
-0.005726 -0.049248 0
-0.006124 -0.055946 0
-0.006568 -0.063384 0
-0.007070 -0.071626 0
-0.007645 -0.080742 0
-0.008308 -0.090807 0
-0.009079 -0.101904 0
-0.009979 -0.114122 0
-0.011032 -0.127553 0
-0.012265 -0.142290 0
-0.013707 -0.158410 0
-0.015383 -0.175957 0
-0.017318 -0.194909 0
-0.019524 -0.215135 0
-0.021995 -0.236331 0
-0.024697 -0.257958 0
-0.027553 -0.279173 0
-0.030436 -0.298795 0
-0.033162 -0.315331 0
-0.035499 -0.327098 0
-0.037192 -0.332451 0
-0.038006 -0.330100 0
-0.037777 -0.319404 0
-0.036447 -0.300550 0
-0.034077 -0.274521 0
-0.030829 -0.242860 0
-0.026925 -0.207342 0
-0.022595 -0.169653 0
-0.018049 -0.131171 0
-0.013444 -0.092851 0
-0.008882 -0.055203 0
-0.004407 -0.018291 0
0.000000 0.000000 0
0.000000 0.000000 0
-0.000383 -0.001122 0
-0.000765 -0.002274 0
-0.001141 -0.003483 0
-0.001512 -0.004780 0
-0.001873 -0.006192 0
-0.002225 -0.007749 0
-0.002566 -0.009480 0
-0.002896 -0.011416 0
-0.003213 -0.013586 0
-0.003520 -0.016022 0
-0.003817 -0.018757 0
-0.004106 -0.021825 0
-0.004388 -0.025261 0
-0.004669 -0.029104 0
-0.004951 -0.033392 0
-0.005239 -0.038170 0
-0.005540 -0.043481 0
-0.005862 -0.049375 0
-0.006212 -0.055904 0
-0.006601 -0.063127 0
-0.007043 -0.071109 0
-0.007550 -0.079922 0
-0.008142 -0.089651 0
-0.008837 -0.100387 0
-0.009660 -0.112235 0
-0.010636 -0.125310 0
-0.011797 -0.139727 0
-0.013173 -0.155595 0
-0.014797 -0.172991 0
-0.016697 -0.191933 0
-0.018894 -0.212331 0
-0.021391 -0.233928 0
-0.024161 -0.256222 0
-0.027135 -0.278399 0
-0.030191 -0.299276 0
-0.033142 -0.317315 0
-0.035745 -0.330729 0
-0.037723 -0.337716 0
-0.038810 -0.336792 0
-0.038807 -0.327138 0
-0.037630 -0.308820 0
-0.035328 -0.282791 0
-0.032064 -0.250658 0
-0.028072 -0.214307 0
-0.023605 -0.175548 0
-0.018885 -0.135855 0
-0.014087 -0.096246 0
-0.009319 -0.057261 0
-0.004628 -0.018981 0
0.000000 0.000000 0
0.000000 0.000000 0
-0.000422 -0.001112 0
-0.000841 -0.002254 0
-0.001254 -0.003457 0
-0.001657 -0.004748 0
-0.002049 -0.006159 0
-0.002427 -0.007718 0
-0.002790 -0.009453 0
-0.003136 -0.011394 0
-0.003466 -0.013568 0
-0.003779 -0.016005 0
-0.004076 -0.018735 0
-0.004358 -0.021787 0
-0.004628 -0.025193 0
-0.004890 -0.028988 0
-0.005146 -0.033206 0
-0.005402 -0.037886 0
-0.005664 -0.043068 0
-0.005939 -0.048800 0
-0.006237 -0.055131 0
-0.006568 -0.062121 0
-0.006945 -0.069835 0
-0.007383 -0.078353 0
-0.007901 -0.087762 0
-0.008521 -0.098168 0
-0.009266 -0.109688 0
-0.010166 -0.122454 0
-0.011253 -0.136601 0
-0.012564 -0.152262 0
-0.014133 -0.169546 0
-0.015997 -0.188506 0
-0.018182 -0.209093 0
-0.020700 -0.231095 0
-0.023533 -0.254057 0
-0.026624 -0.277199 0
-0.029853 -0.299350 0
-0.033037 -0.318936 0
-0.035920 -0.334076 0
-0.038204 -0.342806 0
-0.039589 -0.343438 0
-0.039841 -0.334947 0
-0.038841 -0.317255 0
-0.036621 -0.291271 0
-0.033345 -0.258654 0
-0.029262 -0.221416 0
-0.024645 -0.181512 0
-0.019740 -0.140539 0
-0.014736 -0.099597 0
-0.009754 -0.059267 0
-0.004846 -0.019648 0
0.000000 0.000000 0
0.000000 0.000000 0
-0.000461 -0.001068 0
-0.000919 -0.002168 0
-0.001368 -0.003329 0
-0.001804 -0.004584 0
-0.002226 -0.005961 0
-0.002629 -0.007490 0
-0.003013 -0.009197 0
-0.003374 -0.011111 0
-0.003713 -0.013257 0
-0.004029 -0.015663 0
-0.004323 -0.018354 0
-0.004595 -0.021359 0
-0.004849 -0.024704 0
-0.005087 -0.028420 0
-0.005313 -0.032539 0
-0.005533 -0.037095 0
-0.005751 -0.042129 0
-0.005977 -0.047683 0
-0.006219 -0.053808 0
-0.006489 -0.060564 0
-0.006800 -0.068020 0
-0.007167 -0.076257 0
-0.007611 -0.085373 0
-0.008153 -0.095479 0
-0.008820 -0.106704 0
-0.009642 -0.119194 0
-0.010655 -0.133100 0
-0.011897 -0.148579 0
-0.013409 -0.165764 0
-0.015231 -0.184743 0
-0.017398 -0.205509 0
-0.019930 -0.227897 0
-0.022820 -0.251504 0
-0.026021 -0.275595 0
-0.029424 -0.299021 0
-0.032844 -0.320187 0
-0.036021 -0.337124 0
-0.038633 -0.347709 0
-0.040346 -0.350035 0
-0.040882 -0.342849 0
-0.040087 -0.325902 0
-0.037970 -0.300030 0
-0.034691 -0.266944 0
-0.030514 -0.228788 0
-0.025738 -0.187675 0
-0.020634 -0.145349 0
-0.015412 -0.103012 0
-0.010204 -0.061297 0
-0.005071 -0.020320 0
0.000000 0.000000 0
0.000000 0.000000 0
-0.000502 -0.000989 0
-0.000999 -0.002012 0
-0.001486 -0.003100 0
-0.001957 -0.004285 0
-0.002409 -0.005598 0
-0.002837 -0.007067 0
-0.003240 -0.008718 0
-0.003616 -0.010578 0
-0.003962 -0.012671 0
-0.004279 -0.015021 0
-0.004567 -0.017650 0
-0.004827 -0.020584 0
-0.005062 -0.023848 0
-0.005274 -0.027467 0
-0.005467 -0.031472 0
-0.005646 -0.035894 0
-0.005819 -0.040770 0
-0.005992 -0.046145 0
-0.006176 -0.052068 0
-0.006383 -0.058599 0
-0.006625 -0.065811 0
-0.006920 -0.073788 0
-0.007287 -0.082633 0
-0.007750 -0.092464 0
-0.008336 -0.103419 0
-0.009079 -0.115653 0
-0.010013 -0.129335 0
-0.011182 -0.144637 0
-0.012631 -0.161720 0
-0.014404 -0.180704 0
-0.016544 -0.201622 0
-0.019082 -0.224362 0
-0.022021 -0.248578 0
-0.025326 -0.273586 0
-0.028898 -0.298275 0
-0.032559 -0.321041 0
-0.036041 -0.339840 0
-0.039003 -0.352392 0
-0.041074 -0.356559 0
-0.041930 -0.350838 0
-0.041373 -0.334773 0
-0.039382 -0.309107 0
-0.036112 -0.275585 0
-0.031844 -0.236489 0
-0.026901 -0.194112 0
-0.021584 -0.150361 0
-0.016126 -0.106555 0
-0.010678 -0.063394 0
-0.005306 -0.021013 0
0.000000 0.000000 0
0.000000 0.000000 0
-0.000546 -0.000874 0
-0.001086 -0.001784 0
-0.001612 -0.002765 0
-0.002119 -0.003849 0
-0.002602 -0.005068 0
-0.003057 -0.006450 0
-0.003480 -0.008021 0
-0.003869 -0.009805 0
-0.004222 -0.011824 0
-0.004539 -0.014099 0
-0.004820 -0.016651 0
-0.005065 -0.019501 0
-0.005278 -0.022672 0
-0.005461 -0.026185 0
-0.005618 -0.030070 0
-0.005755 -0.034355 0
-0.005879 -0.039076 0
-0.005998 -0.044277 0
-0.006121 -0.050007 0
-0.006261 -0.056327 0
-0.006432 -0.063311 0
-0.006652 -0.071047 0
-0.006940 -0.079640 0
-0.007321 -0.089215 0
-0.007824 -0.099915 0
-0.008482 -0.111906 0
-0.009334 -0.125368 0
-0.010425 -0.140490 0
-0.011802 -0.157457 0
-0.013519 -0.176420 0
-0.015623 -0.197455 0
-0.018156 -0.220504 0
-0.021133 -0.245280 0
-0.024533 -0.271165 0
-0.028270 -0.297093 0
-0.032173 -0.321469 0
-0.035972 -0.342188 0
-0.039306 -0.356815 0
-0.041768 -0.362977 0
-0.042982 -0.358893 0
-0.042699 -0.343868 0
-0.040863 -0.318520 0
-0.037620 -0.284613 0
-0.033262 -0.244569 0
-0.028144 -0.200875 0
-0.022599 -0.155622 0
-0.016890 -0.110267 0
-0.011183 -0.065587 0
-0.005556 -0.021735 0
0.000000 0.000000 0
0.000000 0.000000 0
-0.000594 -0.000720 0
-0.001179 -0.001480 0
-0.001749 -0.002319 0
-0.002295 -0.003271 0
-0.002812 -0.004368 0
-0.003295 -0.005638 0
-0.003739 -0.007107 0
-0.004142 -0.008797 0
-0.004502 -0.010727 0
-0.004818 -0.012915 0
-0.005090 -0.015380 0
-0.005319 -0.018139 0
-0.005508 -0.021211 0
-0.005660 -0.024617 0
-0.005779 -0.028382 0
-0.005871 -0.032535 0
-0.005943 -0.037108 0
-0.006004 -0.042144 0
-0.006064 -0.047693 0
-0.006135 -0.053816 0
-0.006232 -0.060589 0
-0.006373 -0.068100 0
-0.006579 -0.076457 0
-0.006874 -0.085790 0
-0.007289 -0.096247 0
-0.007857 -0.107999 0
-0.008621 -0.121239 0
-0.009626 -0.136171 0
-0.010925 -0.153001 0
-0.012576 -0.171912 0
-0.014634 -0.193023 0
-0.017150 -0.216328 0
-0.020154 -0.241611 0
-0.023638 -0.268322 0
-0.027533 -0.295455 0
-0.031678 -0.321439 0
-0.035803 -0.344123 0
-0.039531 -0.360930 0
-0.042417 -0.369245 0
-0.044030 -0.366985 0
-0.044064 -0.353178 0
-0.042418 -0.328281 0
-0.039221 -0.294057 0
-0.034780 -0.253066 0
-0.029480 -0.208005 0
-0.023692 -0.161173 0
-0.017711 -0.114181 0
-0.011726 -0.067894 0
-0.005825 -0.022495 0
0.000000 0.000000 0
0.000000 0.000000 0
-0.000647 -0.000523 0
-0.001284 -0.001094 0
-0.001901 -0.001754 0
-0.002491 -0.002541 0
-0.003046 -0.003489 0
-0.003559 -0.004625 0
-0.004027 -0.005974 0
-0.004445 -0.007554 0
-0.004812 -0.009384 0
-0.005127 -0.011478 0
-0.005390 -0.013851 0
-0.005601 -0.016517 0
-0.005765 -0.019493 0
-0.005883 -0.022795 0
-0.005961 -0.026447 0
-0.006005 -0.030474 0
-0.006022 -0.034910 0
-0.006021 -0.039793 0
-0.006014 -0.045175 0
-0.006012 -0.051117 0
-0.006031 -0.057692 0
-0.006089 -0.064993 0
-0.006208 -0.073128 0
-0.006413 -0.082229 0
-0.006734 -0.092448 0
-0.007208 -0.103963 0
-0.007876 -0.116974 0
-0.008788 -0.131702 0
-0.010000 -0.148371 0
-0.011574 -0.167195 0
-0.013574 -0.188335 0
-0.016061 -0.211843 0
-0.019078 -0.237570 0
-0.022635 -0.265046 0
-0.026678 -0.293338 0
-0.031062 -0.320916 0
-0.035521 -0.345601 0
-0.039664 -0.364688 0
-0.043009 -0.375315 0
-0.045068 -0.375078 0
-0.045466 -0.362688 0
-0.044049 -0.338397 0
-0.040925 -0.303942 0
-0.036408 -0.262016 0
-0.030919 -0.215541 0
-0.024872 -0.167048 0
-0.018598 -0.118323 0
-0.012312 -0.070335 0
-0.006114 -0.023298 0
0.000000 0.000000 0
0.000000 0.000000 0
-0.000707 -0.000280 0
-0.001402 -0.000617 0
-0.002074 -0.001059 0
-0.002713 -0.001648 0
-0.003310 -0.002419 0
-0.003858 -0.003399 0
-0.004352 -0.004611 0
-0.004788 -0.006072 0
-0.005164 -0.007795 0
-0.005478 -0.009792 0
-0.005730 -0.012074 0
-0.005923 -0.014650 0
-0.006058 -0.017534 0
-0.006141 -0.020741 0
-0.006175 -0.024289 0
-0.006167 -0.028202 0
-0.006125 -0.032513 0
-0.006059 -0.037258 0
-0.005980 -0.042487 0
-0.005900 -0.048261 0
-0.005836 -0.054654 0
-0.005807 -0.061757 0
-0.005833 -0.069681 0
-0.005941 -0.078557 0
-0.006163 -0.088542 0
-0.006534 -0.099817 0
-0.007099 -0.112592 0
-0.007910 -0.127098 0
-0.009025 -0.143581 0
-0.010512 -0.162281 0
-0.012442 -0.183403 0
-0.014886 -0.207053 0
-0.017903 -0.233158 0
-0.021518 -0.261331 0
-0.025698 -0.290725 0
-0.030315 -0.319868 0
-0.035114 -0.346576 0
-0.039692 -0.368031 0
-0.043533 -0.381131 0
-0.046084 -0.383127 0
-0.046899 -0.372373 0
-0.045759 -0.348870 0
-0.042737 -0.314291 0
-0.038156 -0.271454 0
-0.032474 -0.223524 0
-0.026150 -0.173283 0
-0.019559 -0.122722 0
-0.012946 -0.072926 0
-0.006428 -0.024150 0
0.000000 0.000000 0
0.000000 0.000000 0
-0.000776 0.000018 0
-0.001538 -0.000036 0
-0.002273 -0.000218 0
-0.002968 -0.000573 0
-0.003614 -0.001139 0
-0.004203 -0.001943 0
-0.004727 -0.003005 0
-0.005183 -0.004338 0
-0.005569 -0.005952 0
-0.005882 -0.007853 0
-0.006124 -0.010047 0
-0.006297 -0.012542 0
-0.006402 -0.015344 0
-0.006445 -0.018466 0
-0.006432 -0.021924 0
-0.006368 -0.025738 0
-0.006263 -0.029938 0
-0.006126 -0.034560 0
-0.005969 -0.039652 0
-0.005806 -0.045273 0
-0.005653 -0.051497 0
-0.005529 -0.058414 0
-0.005456 -0.066135 0
-0.005461 -0.074793 0
-0.005575 -0.084545 0
-0.005837 -0.095578 0
-0.006291 -0.108106 0
-0.006991 -0.122373 0
-0.007999 -0.138642 0
-0.009387 -0.157182 0
-0.011235 -0.178235 0
-0.013622 -0.201967 0
-0.016622 -0.228377 0
-0.020279 -0.257171 0
-0.024583 -0.287598 0
-0.029427 -0.318263 0
-0.034567 -0.347000 0
-0.039599 -0.370900 0
-0.043970 -0.386629 0
-0.047067 -0.391078 0
-0.048358 -0.382203 0
-0.047547 -0.359697 0
-0.044665 -0.325126 0
-0.040037 -0.281421 0
-0.034157 -0.231996 0
-0.027538 -0.179919 0