# vtk DataFile Version 2.0
generated by CFD-lab course output (written by Tobias Neckel) 
ASCII

DATASET STRUCTURED_GRID
DIMENSIONS  51 51 1 
POINTS 2601 float

0.000000 0.000000 0
0.020000 0.000000 0
0.040000 0.000000 0
0.060000 0.000000 0
0.080000 0.000000 0
0.100000 0.000000 0
0.120000 0.000000 0
0.140000 0.000000 0
0.160000 0.000000 0
0.180000 0.000000 0
0.200000 0.000000 0
0.220000 0.000000 0
0.240000 0.000000 0
0.260000 0.000000 0
0.280000 0.000000 0
0.300000 0.000000 0
0.320000 0.000000 0
0.340000 0.000000 0
0.360000 0.000000 0
0.380000 0.000000 0
0.400000 0.000000 0
0.420000 0.000000 0
0.440000 0.000000 0
0.460000 0.000000 0
0.480000 0.000000 0
0.500000 0.000000 0
0.520000 0.000000 0
0.540000 0.000000 0
0.560000 0.000000 0
0.580000 0.000000 0
0.600000 0.000000 0
0.620000 0.000000 0
0.640000 0.000000 0
0.660000 0.000000 0
0.680000 0.000000 0
0.700000 0.000000 0
0.720000 0.000000 0
0.740000 0.000000 0
0.760000 0.000000 0
0.780000 0.000000 0
0.800000 0.000000 0
0.820000 0.000000 0
0.840000 0.000000 0
0.860000 0.000000 0
0.880000 0.000000 0
0.900000 0.000000 0
0.920000 0.000000 0
0.940000 0.000000 0
0.960000 0.000000 0
0.980000 0.000000 0
1.000000 0.000000 0
0.000000 0.020000 0
0.020000 0.020000 0
0.040000 0.020000 0
0.060000 0.020000 0
0.080000 0.020000 0
0.100000 0.020000 0
0.120000 0.020000 0
0.140000 0.020000 0
0.160000 0.020000 0
0.180000 0.020000 0
0.200000 0.020000 0
0.220000 0.020000 0
0.240000 0.020000 0
0.260000 0.020000 0
0.280000 0.020000 0
0.300000 0.020000 0
0.320000 0.020000 0
0.340000 0.020000 0
0.360000 0.020000 0
0.380000 0.020000 0
0.400000 0.020000 0
0.420000 0.020000 0
0.440000 0.020000 0
0.460000 0.020000 0
0.480000 0.020000 0
0.500000 0.020000 0
0.520000 0.020000 0
0.540000 0.020000 0
0.560000 0.020000 0
0.580000 0.020000 0
0.600000 0.020000 0
0.620000 0.020000 0
0.640000 0.020000 0
0.660000 0.020000 0
0.680000 0.020000 0
0.700000 0.020000 0
0.720000 0.020000 0
0.740000 0.020000 0
0.760000 0.020000 0
0.780000 0.020000 0
0.800000 0.020000 0
0.820000 0.020000 0
0.840000 0.020000 0
0.860000 0.020000 0
0.880000 0.020000 0
0.900000 0.020000 0
0.920000 0.020000 0
0.940000 0.020000 0
0.960000 0.020000 0
0.980000 0.020000 0
1.000000 0.020000 0
0.000000 0.040000 0
0.020000 0.040000 0
0.040000 0.040000 0
0.060000 0.040000 0
0.080000 0.040000 0
0.100000 0.040000 0
0.120000 0.040000 0
0.140000 0.040000 0
0.160000 0.040000 0
0.180000 0.040000 0
0.200000 0.040000 0
0.220000 0.040000 0
0.240000 0.040000 0
0.260000 0.040000 0
0.280000 0.040000 0
0.300000 0.040000 0
0.320000 0.040000 0
0.340000 0.040000 0
0.360000 0.040000 0
0.380000 0.040000 0
0.400000 0.040000 0
0.420000 0.040000 0
0.440000 0.040000 0
0.460000 0.040000 0
0.480000 0.040000 0
0.500000 0.040000 0
0.520000 0.040000 0
0.540000 0.040000 0
0.560000 0.040000 0
0.580000 0.040000 0
0.600000 0.040000 0
0.620000 0.040000 0
0.640000 0.040000 0
0.660000 0.040000 0
0.680000 0.040000 0
0.700000 0.040000 0
0.720000 0.040000 0
0.740000 0.040000 0
0.760000 0.040000 0
0.780000 0.040000 0
0.800000 0.040000 0
0.820000 0.040000 0
0.840000 0.040000 0
0.860000 0.040000 0
0.880000 0.040000 0
0.900000 0.040000 0
0.920000 0.040000 0
0.940000 0.040000 0
0.960000 0.040000 0
0.980000 0.040000 0
1.000000 0.040000 0
0.000000 0.060000 0
0.020000 0.060000 0
0.040000 0.060000 0
0.060000 0.060000 0
0.080000 0.060000 0
0.100000 0.060000 0
0.120000 0.060000 0
0.140000 0.060000 0
0.160000 0.060000 0
0.180000 0.060000 0
0.200000 0.060000 0
0.220000 0.060000 0
0.240000 0.060000 0
0.260000 0.060000 0
0.280000 0.060000 0
0.300000 0.060000 0
0.320000 0.060000 0
0.340000 0.060000 0
0.360000 0.060000 0
0.380000 0.060000 0
0.400000 0.060000 0
0.420000 0.060000 0
0.440000 0.060000 0
0.460000 0.060000 0
0.480000 0.060000 0
0.500000 0.060000 0
0.520000 0.060000 0
0.540000 0.060000 0
0.560000 0.060000 0
0.580000 0.060000 0
0.600000 0.060000 0
0.620000 0.060000 0
0.640000 0.060000 0
0.660000 0.060000 0
0.680000 0.060000 0
0.700000 0.060000 0
0.720000 0.060000 0
0.740000 0.060000 0
0.760000 0.060000 0
0.780000 0.060000 0
0.800000 0.060000 0
0.820000 0.060000 0
0.840000 0.060000 0
0.860000 0.060000 0
0.880000 0.060000 0
0.900000 0.060000 0
0.920000 0.060000 0
0.940000 0.060000 0
0.960000 0.060000 0
0.980000 0.060000 0
1.000000 0.060000 0
0.000000 0.080000 0
0.020000 0.080000 0
0.040000 0.080000 0
0.060000 0.080000 0
0.080000 0.080000 0
0.100000 0.080000 0
0.120000 0.080000 0
0.140000 0.080000 0
0.160000 0.080000 0
0.180000 0.080000 0
0.200000 0.080000 0
0.220000 0.080000 0
0.240000 0.080000 0
0.260000 0.080000 0
0.280000 0.080000 0
0.300000 0.080000 0
0.320000 0.080000 0
0.340000 0.080000 0
0.360000 0.080000 0
0.380000 0.080000 0
0.400000 0.080000 0
0.420000 0.080000 0
0.440000 0.080000 0
0.460000 0.080000 0
0.480000 0.080000 0
0.500000 0.080000 0
0.520000 0.080000 0
0.540000 0.080000 0
0.560000 0.080000 0
0.580000 0.080000 0
0.600000 0.080000 0
0.620000 0.080000 0
0.640000 0.080000 0
0.660000 0.080000 0
0.680000 0.080000 0
0.700000 0.080000 0
0.720000 0.080000 0
0.740000 0.080000 0
0.760000 0.080000 0
0.780000 0.080000 0
0.800000 0.080000 0
0.820000 0.080000 0
0.840000 0.080000 0
0.860000 0.080000 0
0.880000 0.080000 0
0.900000 0.080000 0
0.920000 0.080000 0
0.940000 0.080000 0
0.960000 0.080000 0
0.980000 0.080000 0
1.000000 0.080000 0
0.000000 0.100000 0
0.020000 0.100000 0
0.040000 0.100000 0
0.060000 0.100000 0
0.080000 0.100000 0
0.100000 0.100000 0
0.120000 0.100000 0
0.140000 0.100000 0
0.160000 0.100000 0
0.180000 0.100000 0
0.200000 0.100000 0
0.220000 0.100000 0
0.240000 0.100000 0
0.260000 0.100000 0
0.280000 0.100000 0
0.300000 0.100000 0
0.320000 0.100000 0
0.340000 0.100000 0
0.360000 0.100000 0
0.380000 0.100000 0
0.400000 0.100000 0
0.420000 0.100000 0
0.440000 0.100000 0
0.460000 0.100000 0
0.480000 0.100000 0
0.500000 0.100000 0
0.520000 0.100000 0
0.540000 0.100000 0
0.560000 0.100000 0
0.580000 0.100000 0
0.600000 0.100000 0
0.620000 0.100000 0
0.640000 0.100000 0
0.660000 0.100000 0
0.680000 0.100000 0
0.700000 0.100000 0
0.720000 0.100000 0
0.740000 0.100000 0
0.760000 0.100000 0
0.780000 0.100000 0
0.800000 0.100000 0
0.820000 0.100000 0
0.840000 0.100000 0
0.860000 0.100000 0
0.880000 0.100000 0
0.900000 0.100000 0
0.920000 0.100000 0
0.940000 0.100000 0
0.960000 0.100000 0
0.980000 0.100000 0
1.000000 0.100000 0
0.000000 0.120000 0
0.020000 0.120000 0
0.040000 0.120000 0
0.060000 0.120000 0
0.080000 0.120000 0
0.100000 0.120000 0
0.120000 0.120000 0
0.140000 0.120000 0
0.160000 0.120000 0
0.180000 0.120000 0
0.200000 0.120000 0
0.220000 0.120000 0
0.240000 0.120000 0
0.260000 0.120000 0
0.280000 0.120000 0
0.300000 0.120000 0
0.320000 0.120000 0
0.340000 0.120000 0
0.360000 0.120000 0
0.380000 0.120000 0
0.400000 0.120000 0
0.420000 0.120000 0
0.440000 0.120000 0
0.460000 0.120000 0
0.480000 0.120000 0
0.500000 0.120000 0
0.520000 0.120000 0
0.540000 0.120000 0
0.560000 0.120000 0
0.580000 0.120000 0
0.600000 0.120000 0
0.620000 0.120000 0
0.640000 0.120000 0
0.660000 0.120000 0
0.680000 0.120000 0
0.700000 0.120000 0
0.720000 0.120000 0
0.740000 0.120000 0
0.760000 0.120000 0
0.780000 0.120000 0
0.800000 0.120000 0
0.820000 0.120000 0
0.840000 0.120000 0
0.860000 0.120000 0
0.880000 0.120000 0
0.900000 0.120000 0
0.920000 0.120000 0
0.940000 0.120000 0
0.960000 0.120000 0
0.980000 0.120000 0
1.000000 0.120000 0
0.000000 0.140000 0
0.020000 0.140000 0
0.040000 0.140000 0
0.060000 0.140000 0
0.080000 0.140000 0
0.100000 0.140000 0
0.120000 0.140000 0
0.140000 0.140000 0
0.160000 0.140000 0
0.180000 0.140000 0
0.200000 0.140000 0
0.220000 0.140000 0
0.240000 0.140000 0
0.260000 0.140000 0
0.280000 0.140000 0
0.300000 0.140000 0
0.320000 0.140000 0
0.340000 0.140000 0
0.360000 0.140000 0
0.380000 0.140000 0
0.400000 0.140000 0
0.420000 0.140000 0
0.440000 0.140000 0
0.460000 0.140000 0
0.480000 0.140000 0
0.500000 0.140000 0
0.520000 0.140000 0
0.540000 0.140000 0
0.560000 0.140000 0
0.580000 0.140000 0
0.600000 0.140000 0
0.620000 0.140000 0
0.640000 0.140000 0
0.660000 0.140000 0
0.680000 0.140000 0
0.700000 0.140000 0
0.720000 0.140000 0
0.740000 0.140000 0
0.760000 0.140000 0
0.780000 0.140000 0
0.800000 0.140000 0
0.820000 0.140000 0
0.840000 0.140000 0
0.860000 0.140000 0
0.880000 0.140000 0
0.900000 0.140000 0
0.920000 0.140000 0
0.940000 0.140000 0
0.960000 0.140000 0
0.980000 0.140000 0
1.000000 0.140000 0
0.000000 0.160000 0
0.020000 0.160000 0
0.040000 0.160000 0
0.060000 0.160000 0
0.080000 0.160000 0
0.100000 0.160000 0
0.120000 0.160000 0
0.140000 0.160000 0
0.160000 0.160000 0
0.180000 0.160000 0
0.200000 0.160000 0
0.220000 0.160000 0
0.240000 0.160000 0
0.260000 0.160000 0
0.280000 0.160000 0
0.300000 0.160000 0
0.320000 0.160000 0
0.340000 0.160000 0
0.360000 0.160000 0
0.380000 0.160000 0
0.400000 0.160000 0
0.420000 0.160000 0
0.440000 0.160000 0
0.460000 0.160000 0
0.480000 0.160000 0
0.500000 0.160000 0
0.520000 0.160000 0
0.540000 0.160000 0
0.560000 0.160000 0
0.580000 0.160000 0
0.600000 0.160000 0
0.620000 0.160000 0
0.640000 0.160000 0
0.660000 0.160000 0
0.680000 0.160000 0
0.700000 0.160000 0
0.720000 0.160000 0
0.740000 0.160000 0
0.760000 0.160000 0
0.780000 0.160000 0
0.800000 0.160000 0
0.820000 0.160000 0
0.840000 0.160000 0
0.860000 0.160000 0
0.880000 0.160000 0
0.900000 0.160000 0
0.920000 0.160000 0
0.940000 0.160000 0
0.960000 0.160000 0
0.980000 0.160000 0
1.000000 0.160000 0
0.000000 0.180000 0
0.020000 0.180000 0
0.040000 0.180000 0
0.060000 0.180000 0
0.080000 0.180000 0
0.100000 0.180000 0
0.120000 0.180000 0
0.140000 0.180000 0
0.160000 0.180000 0
0.180000 0.180000 0
0.200000 0.180000 0
0.220000 0.180000 0
0.240000 0.180000 0
0.260000 0.180000 0
0.280000 0.180000 0
0.300000 0.180000 0
0.320000 0.180000 0
0.340000 0.180000 0
0.360000 0.180000 0
0.380000 0.180000 0
0.400000 0.180000 0
0.420000 0.180000 0
0.440000 0.180000 0
0.460000 0.180000 0
0.480000 0.180000 0
0.500000 0.180000 0
0.520000 0.180000 0
0.540000 0.180000 0
0.560000 0.180000 0
0.580000 0.180000 0
0.600000 0.180000 0
0.620000 0.180000 0
[...]
POINT_DATA 2601 

VECTORS velocity float
0.000000 0.000000 0
0.000000 0.000000 0
0.000000 0.000000 0
0.000000 0.000000 0
0.000000 0.000000 0
0.000000 0.000000 0
0.000000 0.000000 0
0.000000 0.000000 0
0.000000 0.000000 0
0.000000 0.000000 0
0.000000 0.000000 0
0.000000 0.000000 0
0.000000 0.000000 0
0.000000 0.000000 0
0.000000 0.000000 0
0.000000 0.000000 0
0.000000 0.000000 0
0.000000 0.000000 0
0.000000 0.000000 0
0.000000 0.000000 0
0.000000 0.000000 0
0.000000 0.000000 0
0.000000 0.000000 0
0.000000 0.000000 0
0.000000 0.000000 0
0.000000 0.000000 0
0.000000 0.000000 0
0.000000 0.000000 0
0.000000 0.000000 0
0.000000 0.000000 0
0.000000 0.000000 0
0.000000 0.000000 0
0.000000 0.000000 0
0.000000 0.000000 0
0.000000 0.000000 0
0.000000 0.000000 0
0.000000 0.000000 0
0.000000 0.000000 0
0.000000 0.000000 0
0.000000 0.000000 0
0.000000 0.000000 0
0.000000 0.000000 0
0.000000 0.000000 0
0.000000 0.000000 0
0.000000 0.000000 0
0.000000 0.000000 0
0.000000 0.000000 0
0.000000 0.000000 0
0.000000 0.000000 0
0.000000 0.000000 0
0.000000 0.000000 0
0.000000 0.000000 0
0.000034 0.000009 0
0.000067 0.000019 0
0.000101 0.000028 0
0.000135 0.000037 0
0.000168 0.000046 0
0.000202 0.000054 0
0.000236 0.000062 0
0.000270 0.000070 0
0.000304 0.000077 0
0.000338 0.000084 0
0.000372 0.000090 0
0.000406 0.000096 0
0.000440 0.000101 0
0.000475 0.000106 0
0.000509 0.000110 0
0.000543 0.000114 0
0.000577 0.000117 0
0.000610 0.000120 0
0.000644 0.000122 0
0.000676 0.000123 0
0.000708 0.000124 0
0.000740 0.000125 0
0.000770 0.000125 0
0.000799 0.000125 0
0.000827 0.000125 0
0.000852 0.000124 0
0.000876 0.000122 0
0.000898 0.000121 0
0.000916 0.000119 0
0.000932 0.000116 0
0.000944 0.000113 0
0.000952 0.000110 0
0.000955 0.000107 0
0.000953 0.000103 0
0.000946 0.000099 0
0.000932 0.000094 0
0.000912 0.000089 0
0.000884 0.000084 0
0.000849 0.000078 0
0.000807 0.000072 0
0.000756 0.000065 0
0.000698 0.000059 0
0.000631 0.000052 0
0.000557 0.000044 0
0.000476 0.000037 0
0.000389 0.000029 0
0.000297 0.000021 0
0.000200 0.000012 0
0.000101 0.000004 0
0.000000 0.000000 0
0.000000 0.000000 0
0.000067 0.000019 0
0.000134 0.000038 0
0.000202 0.000056 0
0.000269 0.000074 0
0.000336 0.000092 0
0.000404 0.000109 0
0.000472 0.000125 0
0.000540 0.000140 0
0.000608 0.000155 0
0.000676 0.000168 0
0.000744 0.000181 0
0.000813 0.000193 0
0.000881 0.000203 0
0.000950 0.000212 0
0.001018 0.000221 0
0.001086 0.000228 0
0.001154 0.000234 0
0.001222 0.000240 0
0.001288 0.000244 0
0.001354 0.000247 0
0.001418 0.000250 0
0.001481 0.000251 0
0.001542 0.000252 0
0.001600 0.000251 0
0.001656 0.000250 0
0.001708 0.000248 0
0.001756 0.000245 0
0.001799 0.000242 0
0.001837 0.000238 0
0.001868 0.000233 0
0.001893 0.000227 0
0.001909 0.000221 0
0.001916 0.000214 0
0.001912 0.000206 0
0.001898 0.000198 0
0.001871 0.000188 0
0.001831 0.000178 0
0.001776 0.000168 0
0.001707 0.000156 0
0.001622 0.000144 0
0.001521 0.000131 0
0.001403 0.000118 0
0.001270 0.000104 0
0.001122 0.000089 0
0.000959 0.000074 0
0.000784 0.000058 0
0.000598 0.000042 0
0.000403 0.000025 0
0.000203 0.000008 0
0.000000 0.000000 0
0.000000 0.000000 0
0.000101 0.000029 0
0.000202 0.000057 0
0.000303 0.000085 0
0.000404 0.000112 0
0.000505 0.000139 0
0.000606 0.000164 0
0.000708 0.000189 0
0.000810 0.000212 0
0.000912 0.000234 0
0.001014 0.000254 0
0.001117 0.000273 0
0.001220 0.000290 0
0.001323 0.000306 0
0.001426 0.000320 0
0.001529 0.000333 0
0.001631 0.000344 0
0.001733 0.000353 0
0.001835 0.000361 0
0.001935 0.000368 0
0.002034 0.000373 0
0.002131 0.000376 0
0.002226 0.000378 0
0.002317 0.000379 0
0.002406 0.000378 0
0.002490 0.000377 0
0.002569 0.000374 0
0.002641 0.000370 0
0.002707 0.000364 0
0.002765 0.000358 0
0.002813 0.000351 0
0.002851 0.000342 0
0.002876 0.000333 0
0.002888 0.000322 0
0.002884 0.000310 0
0.002864 0.000298 0
0.002824 0.000284 0
0.002765 0.000269 0
0.002684 0.000253 0
0.002581 0.000236 0
0.002453 0.000217 0
0.002301 0.000198 0
0.002125 0.000178 0
0.001924 0.000156 0
0.001700 0.000134 0
0.001454 0.000111 0
0.001189 0.000087 0
0.000907 0.000063 0
0.000612 0.000038 0
0.000308 0.000013 0
0.000000 0.000000 0
0.000000 0.000000 0
0.000135 0.000038 0
0.000269 0.000076 0
0.000404 0.000114 0
0.000539 0.000151 0
0.000674 0.000186 0
0.000809 0.000221 0
0.000945 0.000254 0
0.001081 0.000285 0
0.001217 0.000314 0
0.001354 0.000342 0
0.001491 0.000367 0
0.001628 0.000390 0
0.001766 0.000411 0
0.001904 0.000430 0
0.002042 0.000447 0
0.002179 0.000462 0
0.002316 0.000474 0
0.002451 0.000485 0
0.002586 0.000493 0
0.002718 0.000500 0
0.002849 0.000504 0
0.002976 0.000507 0
0.003099 0.000508 0
0.003218 0.000507 0
0.003332 0.000505 0
0.003438 0.000501 0
0.003537 0.000495 0
0.003627 0.000488 0
0.003705 0.000480 0
0.003772 0.000470 0
0.003824 0.000459 0
0.003860 0.000446 0
0.003877 0.000432 0
0.003875 0.000416 0
0.003849 0.000399 0
0.003799 0.000381 0
0.003722 0.000361 0
0.003615 0.000339 0
0.003478 0.000316 0
0.003309 0.000292 0
0.003106 0.000266 0
0.002870 0.000239 0
0.002600 0.000210 0
0.002299 0.000180 0
0.001967 0.000149 0
0.001609 0.000117 0
0.001228 0.000084 0
0.000829 0.000051 0
0.000418 0.000017 0
0.000000 0.000000 0
0.000000 0.000000 0
0.000168 0.000049 0
0.000337 0.000097 0
0.000505 0.000144 0
0.000674 0.000191 0
0.000843 0.000236 0
0.001012 0.000279 0
0.001182 0.000321 0
0.001352 0.000360 0
0.001523 0.000397 0
0.001695 0.000432 0
0.001866 0.000464 0
0.002039 0.000493 0
0.002212 0.000519 0
0.002384 0.000543 0
0.002557 0.000564 0
0.002730 0.000583 0
0.002902 0.000598 0
0.003072 0.000611 0
0.003242 0.000622 0
0.003409 0.000630 0
0.003573 0.000635 0
0.003734 0.000639 0
0.003890 0.000640 0
0.004041 0.000639 0
0.004184 0.000636 0
0.004320 0.000631 0
0.004446 0.000624 0
0.004561 0.000615 0
0.004662 0.000604 0
0.004748 0.000591 0
0.004816 0.000577 0
0.004865 0.000561 0
0.004890 0.000543 0
0.004890 0.000524 0
0.004862 0.000502 0
0.004802 0.000479 0
0.004709 0.000454 0
0.004578 0.000427 0
0.004408 0.000399 0
0.004197 0.000368 0
0.003943 0.000336 0
0.003646 0.000301 0
0.003307 0.000265 0
0.002926 0.000228 0
0.002506 0.000189 0
0.002051 0.000148 0
0.001566 0.000107 0
0.001058 0.000064 0
0.000533 0.000022 0
0.000000 0.000000 0
0.000000 0.000000 0
0.000202 0.000059 0
0.000404 0.000118 0
0.000607 0.000176 0
0.000809 0.000232 0
0.001013 0.000287 0
0.001216 0.000340 0
0.001420 0.000390 0
0.001625 0.000438 0
0.001831 0.000483 0
0.002037 0.000525 0
0.002244 0.000564 0
0.002452 0.000599 0
0.002660 0.000631 0
0.002868 0.000660 0
0.003077 0.000685 0
0.003285 0.000707 0
0.003493 0.000726 0
0.003700 0.000741 0
0.003905 0.000754 0
0.004107 0.000763 0
0.004306 0.000770 0
0.004502 0.000773 0
0.004692 0.000775 0
0.004875 0.000773 0
0.005051 0.000769 0
0.005217 0.000763 0
0.005372 0.000754 0
0.005513 0.000744 0
0.005639 0.000731 0
0.005747 0.000716 0
0.005834 0.000698 0
0.005897 0.000679 0
0.005932 0.000657 0
0.005938 0.000634 0
0.005908 0.000608 0
0.005842 0.000580 0
0.005733 0.000550 0
0.005580 0.000518 0
0.005378 0.000483 0
0.005126 0.000446 0
0.004822 0.000407 0
0.004463 0.000366 0
0.004052 0.000322 0
0.003588 0.000276 0
0.003076 0.000229 0
0.002519 0.000180 0
0.001925 0.000130 0
0.001301 0.000078 0
0.000656 0.000026 0
0.000000 0.000000 0
0.000000 0.000000 0
0.000236 0.000070 0
0.000472 0.000140 0
0.000709 0.000209 0
0.000946 0.000276 0
0.001183 0.000341 0
0.001421 0.000404 0
0.001660 0.000463 0
0.001900 0.000520 0
0.002140 0.000573 0
0.002382 0.000622 0
0.002625 0.000668 0
0.002868 0.000709 0
0.003112 0.000747 0
0.003357 0.000780 0
0.003602 0.000810 0
0.003847 0.000836 0
0.004091 0.000857 0
0.004334 0.000875 0
0.004576 0.000890 0
0.004815 0.000901 0
0.005051 0.000908 0
0.005282 0.000912 0
0.005507 0.000913 0
0.005725 0.000911 0
0.005934 0.000907 0
0.006133 0.000899 0
0.006318 0.000889 0
0.006489 0.000876 0
0.006642 0.000861 0
0.006774 0.000843 0
0.006881 0.000822 0
0.006961 0.000800 0
0.007010 0.000774 0
0.007023 0.000747 0
0.006996 0.000717 0
0.006924 0.000684 0
0.006803 0.000649 0
0.006629 0.000611 0
0.006398 0.000570 0
0.006105 0.000527 0
0.005750 0.000481 0
0.005329 0.000432 0
0.004843 0.000381 0
0.004294 0.000327 0
0.003684 0.000271 0
0.003020 0.000213 0
0.002310 0.000153 0
0.001562 0.000093 0
0.000788 0.000031 0
0.000000 0.000000 0
0.000000 0.000000 0
0.000270 0.000082 0
0.000541 0.000164 0
0.000812 0.000244 0
0.001083 0.000322 0
0.001355 0.000398 0
0.001628 0.000471 0
0.001901 0.000540 0
0.002176 0.000606 0
0.002452 0.000667 0
0.002730 0.000724 0
0.003008 0.000777 0
0.003288 0.000825 0
0.003569 0.000868 0
0.003851 0.000907 0
0.004133 0.000941 0
0.004416 0.000970 0
0.004698 0.000995 0
0.004979 0.001015 0
0.005258 0.001031 0
0.005535 0.001043 0
0.005808 0.001051 0
0.006077 0.001056 0
0.006339 0.001057 0
0.006593 0.001054 0
0.006838 0.001048 0
0.007071 0.001039 0
0.007290 0.001027 0
0.007492 0.001012 0
0.007674 0.000994 0
0.007833 0.000974 0
0.007964 0.000950 0
0.008065 0.000924 0
0.008129 0.000895 0
0.008153 0.000863 0
0.008131 0.000828 0
0.008058 0.000791 0
0.007927 0.000750 0
0.007735 0.000706 0
0.007475 0.000660 0
0.007144 0.000610 0
0.006737 0.000557 0
0.006253 0.000500 0
0.005690 0.000441 0
0.005051 0.000379 0
0.004339 0.000314 0
0.003561 0.000247 0
0.002725 0.000178 0
0.001844 0.000108 0
0.000930 0.000036 0
0.000000 0.000000 0
0.000000 0.000000 0
0.000305 0.000095 0
0.000610 0.000189 0
0.000915 0.000281 0
0.001221 0.000371 0
0.001528 0.000458 0
0.001836 0.000542 0
0.002145 0.000622 0
0.002455 0.000697 0
0.002768 0.000767 0
0.003081 0.000833 0
0.003397 0.000893 0
0.003714 0.000947 0
0.004032 0.000996 0
0.004352 0.001040 0
0.004672 0.001078 0
0.004993 0.001111 0
0.005314 0.001138 0
0.005634 0.001161 0
0.005953 0.001179 0
0.006269 0.001192 0
0.006582 0.001200 0
0.006889 0.001205 0
0.007190 0.001205 0
0.007483 0.001202 0
0.007766 0.001195 0
0.008036 0.001184 0
0.008290 0.001170 0
0.008526 0.001153 0
0.008741 0.001132 0
0.008929 0.001109 0
0.009088 0.001082 0
0.009212 0.001052 0
0.009297 0.001019 0
0.009335 0.000983 0
0.009322 0.000943 0
0.009250 0.000901 0
0.009114 0.000855 0
0.008906 0.000805 0
0.008620 0.000752 0
0.008251 0.000696 0
0.007794 0.000635 0
0.007245 0.000572 0
0.006603 0.000504 0
0.005870 0.000434 0
0.005049 0.000360 0
0.004148 0.000283 0
0.003178 0.000204 0
0.002151 0.000123 0
0.001086 0.000041 0
0.000000 0.000000 0
0.000000 0.000000 0
0.000340 0.000108 0
0.000679 0.000216 0
0.001019 0.000321 0
0.001360 0.000424 0
0.001702 0.000523 0
0.002046 0.000619 0
0.002391 0.000709 0
0.002738 0.000794 0
0.003086 0.000874 0
0.003437 0.000948 0
0.003790 0.001015 0
0.004145 0.001077 0
0.004502 0.001131 0
0.004861 0.001180 0
0.005221 0.001222 0
0.005582 0.001259 0
0.005943 0.001289 0
0.006304 0.001314 0
0.006663 0.001333 0
0.007020 0.001347 0
0.007374 0.001356 0
0.007723 0.001360 0
0.008065 0.001360 0
0.008398 0.001356 0
0.008721 0.001347 0
0.009030 0.001335 0
0.009323 0.001318 0
0.009597 0.001298 0
0.009847 0.001275 0
0.010069 0.001248 0
0.010259 0.001218 0
0.010411 0.001184 0
0.010519 0.001147 0
0.010576 0.001106 0
0.010576 0.001062 0
0.010510 0.001014 0
0.010372 0.000963 0
0.010152 0.000907 0
0.009843 0.000848 0
0.009438 0.000785 0
0.008931 0.000717 0
0.008316 0.000646 0
0.007593 0.000570 0
0.006760 0.000490 0
0.005824 0.000407 0
0.004791 0.000320 0
0.003674 0.000231 0
0.002490 0.000140 0
0.001257 0.000047 0
0.000000 0.000000 0
0.000000 0.000000 0
0.000375 0.000123 0
0.000749 0.000245 0
0.001125 0.000365 0
0.001501 0.000481 0
0.001879 0.000594 0
0.002258 0.000701 0
0.002640 0.000803 0
0.003023 0.000899 0
0.003409 0.000989 0
0.003798 0.001071 0
0.004190 0.001146 0
0.004584 0.001215 0
0.004980 0.001276 0
0.005379 0.001329 0
0.005780 0.001376 0
0.006182 0.001415 0
0.006585 0.001448 0
0.006988 0.001475 0
0.007391 0.001496 0
0.007791 0.001510 0
0.008188 0.001519 0
0.008580 0.001523 0
0.008965 0.001522 0
0.009342 0.001516 0
0.009708 0.001506 0
0.010060 0.001491 0
0.010395 0.001473 0
0.010709 0.001450 0
0.010998 0.001423 0
0.011258 0.001393 0
0.011483 0.001359 0
0.011667 0.001321 0
0.011803 0.001280 0
0.011884 0.001235 0
0.011902 0.001185 0
0.011847 0.001132 0
0.011711 0.001075 0
0.011483 0.001013 0
0.011155 0.000948 0
0.010716 0.000877 0
0.010160 0.000802 0
0.009479 0.000722 0
0.008671 0.000638 0
0.007735 0.000549 0
0.006674 0.000456 0
0.005499 0.000359 0
0.004222 0.000259 0
0.002863 0.000157 0
0.001447 0.000052 0
0.000000 0.000000 0
0.000000 0.000000 0
0.000410 0.000139 0
0.000820 0.000277 0
0.001231 0.000412 0
0.001644 0.000543 0
0.002057 0.000670 0
0.002473 0.000791 0
0.002892 0.000905 0
0.003313 0.001013 0
0.003737 0.001112 0
0.004165 0.001204 0
0.004596 0.001288 0
0.005030 0.001363 0
0.005468 0.001430 0
0.005908 0.001488 0
0.006352 0.001539 0
0.006797 0.001582 0
0.007244 0.001618 0
0.007691 0.001646 0
0.008138 0.001667 0
0.008584 0.001682 0
0.009026 0.001691 0
0.009464 0.001694 0
0.009896 0.001692 0
0.010319 0.001684 0
0.010731 0.001672 0
0.011129 0.001655 0
0.011509 0.001633 0
0.011868 0.001607 0
0.012200 0.001577 0
0.012502 0.001543 0
0.012766 0.001505 0
0.012987 0.001463 0
0.013157 0.001417 0
0.013267 0.001367 0
0.013308 0.001313 0
0.013269 0.001254 0
0.013141 0.001191 0
0.012910 0.001123 0
0.012566 0.001051 0
0.012098 0.000973 0
0.011494 0.000890 0
0.010747 0.000802 0
0.009852 0.000709 0
0.008805 0.000611 0
0.007612 0.000508 0
0.006282 0.000400 0
0.004830 0.000289 0
0.003279 0.000175 0
0.001658 0.000058 0
0.000000 0.000000 0
0.000000 0.000000 0
0.000446 0.000157 0
0.000892 0.000312 0
0.001339 0.000464 0
0.001788 0.000611 0
0.002238 0.000753 0
0.002692 0.000889 0
0.003148 0.001016 0
0.003608 0.001136 0
0.004071 0.001247 0
0.004539 0.001348 0
0.005011 0.001440 0
0.005486 0.001523 0
0.005967 0.001596 0
0.006450 0.001659 0
0.006938 0.001714 0
0.007428 0.001760 0
0.007921 0.001798 0
0.008415 0.001827 0
0.008909 0.001849 0
0.009402 0.001864 0
0.009893 0.001872 0
0.010380 0.001874 0
0.010861 0.001870 0
0.011333 0.001861 0
0.011795 0.001846 0
0.012242 0.001826 0
0.012671 0.001801 0
0.013079 0.001772 0
0.013459 0.001738 0
0.013807 0.001700 0
0.014116 0.001658 0
0.014380 0.001611 0
0.014588 0.001560 0
0.014733 0.001505 0
0.014804 0.001445 0
0.014788 0.001381 0
0.014673 0.001312 0
0.014445 0.001237 0
0.014091 0.001158 0
0.013597 0.001073 0
0.012948 0.000982 0
0.012135 0.000885 0
0.011150 0.000783 0
0.009988 0.000675 0
0.008652 0.000561 0
0.007153 0.000443 0
0.005509 0.000320 0
0.003744 0.000193 0
0.001895 0.000065 0
0.000000 0.000000 0
0.000000 0.000000 0
0.000482 0.000176 0
0.000965 0.000350 0
0.001448 0.000521 0
0.001934 0.000686 0
0.002422 0.000845 0
0.002913 0.000996 0
0.003408 0.001138 0
0.003907 0.001271 0
0.004411 0.001393 0
0.004920 0.001505 0
0.005434 0.001606 0
0.005953 0.001696 0
0.006478 0.001775 0
0.007007 0.001844 0
0.007541 0.001902 0
0.008078 0.001951 0
0.008619 0.001990 0
0.009162 0.002021 0
0.009706 0.002043 0
0.010250 0.002057 0
0.010793 0.002064 0
0.011331 0.002065 0
0.011865 0.002058 0
0.012390 0.002046 0
0.012905 0.002028 0
0.013405 0.002005 0
0.013888 0.001977 0
0.014348 0.001944 0
0.014781 0.001906 0
0.015181 0.001864 0
0.015540 0.001817 0
0.015852 0.001765 0
0.016106 0.001709 0
0.016292 0.001648 0
0.016399 0.001583 0
0.016412 0.001512 0
0.016318 0.001437 0
0.016101 0.001355 0
0.015743 0.001269 0
0.015227 0.001176 0
0.014538 0.001077 0
0.013660 0.000971 0
0.012582 0.000859 0
0.011299 0.000741 0
0.009811 0.000617 0
0.008128 0.000487 0
0.006270 0.000352 0
0.004267 0.000213 0
0.002161 0.000071 0
0.000000 0.000000 0
0.000000 0.000000 0
0.000519 0.000198 0
0.001038 0.000393 0
0.001559 0.000584 0
0.002082 0.000769 0
0.002608 0.000947 0
0.003138 0.001115 0
0.003673 0.001273 0
0.004213 0.001420 0
0.004759 0.001554 0
0.005310 0.001677 0
0.005868 0.001787 0
0.006433 0.001884 0
0.007003 0.001970 0
0.007580 0.002043 0
0.008162 0.002105 0
0.008750 0.002156 0
0.009342 0.002197 0
0.009936 0.002228 0
0.010534 0.002250 0
0.011131 0.002263 0
0.011729 0.002268 0
0.012323 0.002266 0
0.012913 0.002257 0
0.013495 0.002242 0
0.014067 0.002221 0
0.014625 0.002194 0
0.015165 0.002161 0
0.015684 0.002124 0
0.016174 0.002081 0
0.016631 0.002034 0
0.017047 0.001982 0
0.017412 0.001925 0
0.017718 0.001864 0
0.017953 0.001797 0
0.018104 0.001726 0
0.018155 0.001649 0
0.018090 0.001566 0
0.017890 0.001478 0
0.017535 0.001383 0
0.017005 0.001282 0
0.016280 0.001175 0
0.015339 0.001060 0
0.014168 0.000939 0
0.012757 0.000810 0
0.011105 0.000674 0
0.009221 0.000532 0
0.007127 0.000385 0
0.004858 0.000233 0
0.002463 0.000078 0
0.000000 0.000000 0
0.000000 0.000000 0
0.000556 0.000222 0
0.001113 0.000441 0
0.001671 0.000655 0
0.002232 0.000862 0
0.002798 0.001060 0
0.003368 0.001247 0
0.003943 0.001422 0
0.004525 0.001584 0
0.005114 0.001732 0
0.005710 0.001866 0
0.006314 0.001985 0
0.006926 0.002091 0
0.007545 0.002182 0
0.008172 0.002260 0
0.008806 0.002325 0
0.009446 0.002378 0
0.010092 0.002419 0
0.010742 0.002450 0
0.011396 0.002471 0
0.012051 0.002482 0
0.012706 0.002485 0
0.013360 0.002480 0
0.014010 0.002468 0
0.014653 0.002449 0
0.015287 0.002423 0
0.015908 0.002392 0
0.016511 0.002355 0
0.017092 0.002313 0
0.017646 0.002265 0
0.018166 0.002212 0
0.018644 0.002155 0
0.019071 0.002092 0
0.019436 0.002025 0
0.019728 0.001952 0
0.019931 0.001874 0
0.020028 0.001790 0
0.020001 0.001700 0
0.019828 0.001604 0
0.019486 0.001502 0
0.018949 0.001392 0
0.018193 0.001276 0
0.017193 0.001152 0
0.015929 0.001020 0
0.014386 0.000881 0
0.012558 0.000734 0
0.010454 0.000580 0
0.008098 0.000419 0
0.005529 0.000254 0
0.002806 0.000085 0
0.000000 0.000000 0
0.000000 0.000000 0
0.000594 0.000249 0
0.001188 0.000495 0
0.001785 0.000736 0
0.002385 0.000967 0
0.002990 0.001188 0
0.003601 0.001396 0
0.004219 0.001589 0
0.004844 0.001767 0
0.005478 0.001929 0
0.006121 0.002075 0
0.006773 0.002204 0
0.007435 0.002317 0
0.008105 0.002414 0
0.008785 0.002496 0
0.009474 0.002564 0
0.010170 0.002618 0
0.010874 0.002660 0
0.011583 0.002689 0
0.012297 0.002708 0
0.013014 0.002717 0
0.013732 0.002717 0
0.014450 0.002708 0
0.015164 0.002692 0
0.015873 0.002668 0
0.016573 0.002638 0
0.017262 0.002601 0
0.017933 0.002559 0
0.018583 0.002511 0
0.019206 0.002458 0
0.019796 0.002399 0
0.020343 0.002335 0
0.020838 0.002266 0
0.021271 0.002192 0
0.021627 0.002113 0
0.021891 0.002027 0
0.022045 0.001936 0
0.022066 0.001839 0
0.021930 0.001735 0
0.021611 0.001624 0
0.021078 0.001506 0
0.020300 0.001380 0
0.019246 0.001246 0
0.017890 0.001104 0
0.016209 0.000953 0
0.014194 0.000794 0
0.011850 0.000628 0
0.009201 0.000454 0
0.006295 0.000275 0
0.003199 0.000092 0
0.000000 0.000000 0
0.000000 0.000000 0
0.000632 0.000280 0
0.001264 0.000557 0
0.001900 0.000826 0
0.002540 0.001085 0
0.003186 0.001332 0
0.003839 0.001562 0
0.004500 0.001776 0
0.005170 0.001972 0
0.005851 0.002149 0
0.006543 0.002307 0
0.007246 0.002446 0
0.007961 0.002567 0
0.008686 0.002670 0
0.009423 0.002755 0
0.010170 0.002825 0
0.010926 0.002879 0
0.011691 0.002920 0
0.012464 0.002948 0
0.013243 0.002964 0
0.014026 0.002969 0
0.014812 0.002964 0
0.015598 0.002951 0
0.016382 0.002929 0
0.017162 0.002900 0
0.017935 0.002864 0
0.018696 0.002822 0
0.019441 0.002774 0
0.020166 0.002719 0
0.020865 0.002660 0
0.021530 0.002595 0
0.022154 0.002524 0
0.022726 0.002448 0
0.023234 0.002367 0
0.023665 0.002280 0
0.024000 0.002187 0
0.024220 0.002088 0
0.024301 0.001982 0
0.024215 0.001869 0
0.023931 0.001749 0
0.023412 0.001621 0
0.022623 0.001486 0
0.021523 0.001341 0
0.020078 0.001188 0
0.018256 0.001026 0
0.016042 0.000855 0
0.013435 0.000676 0
0.010461 0.000490 0
0.007172 0.000297 0
0.003650 0.000100 0
0.000000 0.000000 0
0.000000 0.000000 0
0.000670 0.000316 0
0.001341 0.000627 0
0.002016 0.000930 0
0.002697 0.001220 0
0.003384 0.001495 0
0.004080 0.001751 0
0.004787 0.001988 0
0.005505 0.002203 0
0.006235 0.002396 0
0.006979 0.002567 0
0.007736 0.002716 0
0.008507 0.002843 0
0.009291 0.002951 0
0.010088 0.003039 0
0.010898 0.003110 0
0.011719 0.003163 0
0.012550 0.003202 0
0.013391 0.003227 0
0.014240 0.003239 0
0.015094 0.003239 0
0.015953 0.003230 0
0.016814 0.003210 0
0.017674 0.003183 0
0.018530 0.003147 0
0.019381 0.003105 0
0.020221 0.003055 0
0.021047 0.003000 0