# vtk DataFile Version 2.0
generated by CFD-lab course output (written by Tobias Neckel) 
ASCII

DATASET STRUCTURED_GRID
DIMENSIONS  51 51 1 
POINTS 2601 float

0.000000 0.000000 0
0.020000 0.000000 0
0.040000 0.000000 0
0.060000 0.000000 0
0.080000 0.000000 0
0.100000 0.000000 0
0.120000 0.000000 0
0.140000 0.000000 0
0.160000 0.000000 0
0.180000 0.000000 0
0.200000 0.000000 0
0.220000 0.000000 0
0.240000 0.000000 0
0.260000 0.000000 0
0.280000 0.000000 0
0.300000 0.000000 0
0.320000 0.000000 0
0.340000 0.000000 0
0.360000 0.000000 0
0.380000 0.000000 0
0.400000 0.000000 0
0.420000 0.000000 0
0.440000 0.000000 0
0.460000 0.000000 0
0.480000 0.000000 0
0.500000 0.000000 0
0.520000 0.000000 0
0.540000 0.000000 0
0.560000 0.000000 0
0.580000 0.000000 0
0.600000 0.000000 0
0.620000 0.000000 0
0.640000 0.000000 0
0.660000 0.000000 0
0.680000 0.000000 0
0.700000 0.000000 0
0.720000 0.000000 0
0.740000 0.000000 0
0.760000 0.000000 0
0.780000 0.000000 0
0.800000 0.000000 0
0.820000 0.000000 0
0.840000 0.000000 0
0.860000 0.000000 0
0.880000 0.000000 0
0.900000 0.000000 0
0.920000 0.000000 0
0.940000 0.000000 0
0.960000 0.000000 0
0.980000 0.000000 0
1.000000 0.000000 0
0.000000 0.020000 0
0.020000 0.020000 0
0.040000 0.020000 0
0.060000 0.020000 0
0.080000 0.020000 0
0.100000 0.020000 0
0.120000 0.020000 0
0.140000 0.020000 0
0.160000 0.020000 0
0.180000 0.020000 0
0.200000 0.020000 0
0.220000 0.020000 0
0.240000 0.020000 0
0.260000 0.020000 0
0.280000 0.020000 0
0.300000 0.020000 0
0.320000 0.020000 0
0.340000 0.020000 0
0.360000 0.020000 0
0.380000 0.020000 0
0.400000 0.020000 0
0.420000 0.020000 0
0.440000 0.020000 0
0.460000 0.020000 0
0.480000 0.020000 0
0.500000 0.020000 0
0.520000 0.020000 0
0.540000 0.020000 0
0.560000 0.020000 0
0.580000 0.020000 0
0.600000 0.020000 0
0.620000 0.020000 0
0.640000 0.020000 0
0.660000 0.020000 0
0.680000 0.020000 0
0.700000 0.020000 0
0.720000 0.020000 0
0.740000 0.020000 0
0.760000 0.020000 0
0.780000 0.020000 0
0.800000 0.020000 0
0.820000 0.020000 0
0.840000 0.020000 0
0.860000 0.020000 0
0.880000 0.020000 0
0.900000 0.020000 0
0.920000 0.020000 0
0.940000 0.020000 0
0.960000 0.020000 0
0.980000 0.020000 0
1.000000 0.020000 0
0.000000 0.040000 0
0.020000 0.040000 0
0.040000 0.040000 0
0.060000 0.040000 0
0.080000 0.040000 0
0.100000 0.040000 0
0.120000 0.040000 0
0.140000 0.040000 0
0.160000 0.040000 0
0.180000 0.040000 0
0.200000 0.040000 0
0.220000 0.040000 0
0.240000 0.040000 0
0.260000 0.040000 0
0.280000 0.040000 0
0.300000 0.040000 0
0.320000 0.040000 0
0.340000 0.040000 0
0.360000 0.040000 0
0.380000 0.040000 0
0.400000 0.040000 0
0.420000 0.040000 0
0.440000 0.040000 0
0.460000 0.040000 0
0.480000 0.040000 0
0.500000 0.040000 0
0.520000 0.040000 0
0.540000 0.040000 0
0.560000 0.040000 0
0.580000 0.040000 0
0.600000 0.040000 0
0.620000 0.040000 0
0.640000 0.040000 0
0.660000 0.040000 0
0.680000 0.040000 0
0.700000 0.040000 0
0.720000 0.040000 0
0.740000 0.040000 0
0.760000 0.040000 0
0.780000 0.040000 0
0.800000 0.040000 0
0.820000 0.040000 0
0.840000 0.040000 0
0.860000 0.040000 0
0.880000 0.040000 0
0.900000 0.040000 0
0.920000 0.040000 0
0.940000 0.040000 0
0.960000 0.040000 0
0.980000 0.040000 0
1.000000 0.040000 0
0.000000 0.060000 0
0.020000 0.060000 0
0.040000 0.060000 0
0.060000 0.060000 0
0.080000 0.060000 0
0.100000 0.060000 0
0.120000 0.060000 0
0.140000 0.060000 0
0.160000 0.060000 0
0.180000 0.060000 0
0.200000 0.060000 0
0.220000 0.060000 0
0.240000 0.060000 0
0.260000 0.060000 0
0.280000 0.060000 0
0.300000 0.060000 0
0.320000 0.060000 0
0.340000 0.060000 0
0.360000 0.060000 0
0.380000 0.060000 0
0.400000 0.060000 0
0.420000 0.060000 0
0.440000 0.060000 0
0.460000 0.060000 0
0.480000 0.060000 0
0.500000 0.060000 0
0.520000 0.060000 0
0.540000 0.060000 0
0.560000 0.060000 0
0.580000 0.060000 0
0.600000 0.060000 0
0.620000 0.060000 0
0.640000 0.060000 0
0.660000 0.060000 0
0.680000 0.060000 0
0.700000 0.060000 0
0.720000 0.060000 0
0.740000 0.060000 0
0.760000 0.060000 0
0.780000 0.060000 0
0.800000 0.060000 0
0.820000 0.060000 0
0.840000 0.060000 0
0.860000 0.060000 0
0.880000 0.060000 0
0.900000 0.060000 0
0.920000 0.060000 0
0.940000 0.060000 0
0.960000 0.060000 0
0.980000 0.060000 0
1.000000 0.060000 0
0.000000 0.080000 0
0.020000 0.080000 0
0.040000 0.080000 0
0.060000 0.080000 0
0.080000 0.080000 0
0.100000 0.080000 0
0.120000 0.080000 0
0.140000 0.080000 0
0.160000 0.080000 0
0.180000 0.080000 0
0.200000 0.080000 0
0.220000 0.080000 0
0.240000 0.080000 0
0.260000 0.080000 0
0.280000 0.080000 0
0.300000 0.080000 0
0.320000 0.080000 0
0.340000 0.080000 0
0.360000 0.080000 0
0.380000 0.080000 0
0.400000 0.080000 0
0.420000 0.080000 0
0.440000 0.080000 0
0.460000 0.080000 0
0.480000 0.080000 0
0.500000 0.080000 0
0.520000 0.080000 0
0.540000 0.080000 0
0.560000 0.080000 0
0.580000 0.080000 0
0.600000 0.080000 0
0.620000 0.080000 0
0.640000 0.080000 0
0.660000 0.080000 0
0.680000 0.080000 0
0.700000 0.080000 0
0.720000 0.080000 0
0.740000 0.080000 0
0.760000 0.080000 0
0.780000 0.080000 0
0.800000 0.080000 0
0.820000 0.080000 0
0.840000 0.080000 0
0.860000 0.080000 0
0.880000 0.080000 0
0.900000 0.080000 0
0.920000 0.080000 0
0.940000 0.080000 0
0.960000 0.080000 0
0.980000 0.080000 0
1.000000 0.080000 0
0.000000 0.100000 0
0.020000 0.100000 0
0.040000 0.100000 0
0.060000 0.100000 0
0.080000 0.100000 0
0.100000 0.100000 0
0.120000 0.100000 0
0.140000 0.100000 0
0.160000 0.100000 0
0.180000 0.100000 0
0.200000 0.100000 0
0.220000 0.100000 0
0.240000 0.100000 0
0.260000 0.100000 0
0.280000 0.100000 0
0.300000 0.100000 0
0.320000 0.100000 0
0.340000 0.100000 0
0.360000 0.100000 0
0.380000 0.100000 0
0.400000 0.100000 0
0.420000 0.100000 0
0.440000 0.100000 0
0.460000 0.100000 0
0.480000 0.100000 0
0.500000 0.100000 0
0.520000 0.100000 0
0.540000 0.100000 0
0.560000 0.100000 0
0.580000 0.100000 0
0.600000 0.100000 0
0.620000 0.100000 0
0.640000 0.100000 0
0.660000 0.100000 0
0.680000 0.100000 0
0.700000 0.100000 0
0.720000 0.100000 0
0.740000 0.100000 0
0.760000 0.100000 0
0.780000 0.100000 0
0.800000 0.100000 0
0.820000 0.100000 0
0.840000 0.100000 0
0.860000 0.100000 0
0.880000 0.100000 0
0.900000 0.100000 0
0.920000 0.100000 0
0.940000 0.100000 0
0.960000 0.100000 0
0.980000 0.100000 0
1.000000 0.100000 0
0.000000 0.120000 0
0.020000 0.120000 0
0.040000 0.120000 0
0.060000 0.120000 0
0.080000 0.120000 0
0.100000 0.120000 0
0.120000 0.120000 0
0.140000 0.120000 0
0.160000 0.120000 0
0.180000 0.120000 0
0.200000 0.120000 0
0.220000 0.120000 0
0.240000 0.120000 0
0.260000 0.120000 0
0.280000 0.120000 0
0.300000 0.120000 0
0.320000 0.120000 0
0.340000 0.120000 0
0.360000 0.120000 0
0.380000 0.120000 0
0.400000 0.120000 0
0.420000 0.120000 0
0.440000 0.120000 0
0.460000 0.120000 0
0.480000 0.120000 0
0.500000 0.120000 0
0.520000 0.120000 0
0.540000 0.120000 0
0.560000 0.120000 0
0.580000 0.120000 0
0.600000 0.120000 0
0.620000 0.120000 0
0.640000 0.120000 0
0.660000 0.120000 0
0.680000 0.120000 0
0.700000 0.120000 0
0.720000 0.120000 0
0.740000 0.120000 0
0.760000 0.120000 0
0.780000 0.120000 0
0.800000 0.120000 0
0.820000 0.120000 0
0.840000 0.120000 0
0.860000 0.120000 0
0.880000 0.120000 0
0.900000 0.120000 0
0.920000 0.120000 0
0.940000 0.120000 0
0.960000 0.120000 0
0.980000 0.120000 0
1.000000 0.120000 0
0.000000 0.140000 0
0.020000 0.140000 0
0.040000 0.140000 0
0.060000 0.140000 0
0.080000 0.140000 0
0.100000 0.140000 0
0.120000 0.140000 0
0.140000 0.140000 0
0.160000 0.140000 0
0.180000 0.140000 0
0.200000 0.140000 0
0.220000 0.140000 0
0.240000 0.140000 0
0.260000 0.140000 0
0.280000 0.140000 0
0.300000 0.140000 0
0.320000 0.140000 0
0.340000 0.140000 0
0.360000 0.140000 0
0.380000 0.140000 0
0.400000 0.140000 0
0.420000 0.140000 0
0.440000 0.140000 0
0.460000 0.140000 0
0.480000 0.140000 0
0.500000 0.140000 0
0.520000 0.140000 0
0.540000 0.140000 0
0.560000 0.140000 0
0.580000 0.140000 0
0.600000 0.140000 0
0.620000 0.140000 0
0.640000 0.140000 0
0.660000 0.140000 0
0.680000 0.140000 0
0.700000 0.140000 0
0.720000 0.140000 0
0.740000 0.140000 0
0.760000 0.140000 0
0.780000 0.140000 0
0.800000 0.140000 0
0.820000 0.140000 0
0.840000 0.140000 0
0.860000 0.140000 0
0.880000 0.140000 0
0.900000 0.140000 0
0.920000 0.140000 0
0.940000 0.140000 0
0.960000 0.140000 0
0.980000 0.140000 0
1.000000 0.140000 0
0.000000 0.160000 0
0.020000 0.160000 0
0.040000 0.160000 0
0.060000 0.160000 0
0.080000 0.160000 0
0.100000 0.160000 0
0.120000 0.160000 0
0.140000 0.160000 0
0.160000 0.160000 0
0.180000 0.160000 0
0.200000 0.160000 0
0.220000 0.160000 0
0.240000 0.160000 0
0.260000 0.160000 0
0.280000 0.160000 0
0.300000 0.160000 0
0.320000 0.160000 0
0.340000 0.160000 0
0.360000 0.160000 0
0.380000 0.160000 0
0.400000 0.160000 0
0.420000 0.160000 0
0.440000 0.160000 0
0.460000 0.160000 0
0.480000 0.160000 0
0.500000 0.160000 0
0.520000 0.160000 0
0.540000 0.160000 0
0.560000 0.160000 0
0.580000 0.160000 0
0.600000 0.160000 0
0.620000 0.160000 0
0.640000 0.160000 0
0.660000 0.160000 0
0.680000 0.160000 0
0.700000 0.160000 0
0.720000 0.160000 0
0.740000 0.160000 0
0.760000 0.160000 0
0.780000 0.160000 0
0.800000 0.160000 0
0.820000 0.160000 0
0.840000 0.160000 0
0.860000 0.160000 0
0.880000 0.160000 0
0.900000 0.160000 0
0.920000 0.160000 0
0.940000 0.160000 0
0.960000 0.160000 0
0.980000 0.160000 0
1.000000 0.160000 0
0.000000 0.180000 0
0.020000 0.180000 0
0.040000 0.180000 0
0.060000 0.180000 0
0.080000 0.180000 0
0.100000 0.180000 0
0.120000 0.180000 0
0.140000 0.180000 0
0.160000 0.180000 0
0.180000 0.180000 0
0.200000 0.180000 0
0.220000 0.180000 0
0.240000 0.180000 0
0.260000 0.180000 0
0.280000 0.180000 0
0.300000 0.180000 0
0.320000 0.180000 0
0.340000 0.180000 0
0.360000 0.180000 0
0.380000 0.180000 0
0.400000 0.180000 0
0.420000 0.180000 0
0.440000 0.180000 0
0.460000 0.180000 0
0.480000 0.180000 0
0.500000 0.180000 0
0.520000 0.180000 0
0.540000 0.180000 0
0.560000 0.180000 0
0.580000 0.180000 0
0.600000 0.180000 0
0.620000 0.180000 0
[...]
POINT_DATA 2601 

VECTORS velocity float
0.000000 0.000000 0
0.000000 0.000000 0
0.000000 0.000000 0
0.000000 0.000000 0
0.000000 0.000000 0
0.000000 0.000000 0
0.000000 0.000000 0
0.000000 0.000000 0
0.000000 0.000000 0
0.000000 0.000000 0
0.000000 0.000000 0
0.000000 0.000000 0
0.000000 0.000000 0
0.000000 0.000000 0
0.000000 0.000000 0
0.000000 0.000000 0
0.000000 0.000000 0
0.000000 0.000000 0
0.000000 0.000000 0
0.000000 0.000000 0
0.000000 0.000000 0
0.000000 0.000000 0
0.000000 0.000000 0
0.000000 0.000000 0
0.000000 0.000000 0
0.000000 0.000000 0
0.000000 0.000000 0
0.000000 0.000000 0
0.000000 0.000000 0
0.000000 0.000000 0
0.000000 0.000000 0
0.000000 0.000000 0
0.000000 0.000000 0
0.000000 0.000000 0
0.000000 0.000000 0
0.000000 0.000000 0
0.000000 0.000000 0
0.000000 0.000000 0
0.000000 0.000000 0
0.000000 0.000000 0
0.000000 0.000000 0
0.000000 0.000000 0
0.000000 0.000000 0
0.000000 0.000000 0
0.000000 0.000000 0
0.000000 0.000000 0
0.000000 0.000000 0
0.000000 0.000000 0
0.000000 0.000000 0
0.000000 0.000000 0
0.000000 0.000000 0
0.000000 0.000000 0
0.000034 0.000010 0
0.000069 0.000019 0
0.000103 0.000029 0
0.000137 0.000038 0
0.000172 0.000047 0
0.000206 0.000056 0
0.000240 0.000065 0
0.000275 0.000073 0
0.000310 0.000080 0
0.000344 0.000087 0
0.000379 0.000094 0
0.000414 0.000100 0
0.000449 0.000106 0
0.000483 0.000111 0
0.000518 0.000115 0
0.000553 0.000119 0
0.000587 0.000122 0
0.000621 0.000125 0
0.000655 0.000128 0
0.000688 0.000130 0
0.000720 0.000131 0
0.000752 0.000132 0
0.000782 0.000133 0
0.000812 0.000133 0
0.000840 0.000132 0
0.000866 0.000131 0
0.000890 0.000130 0
0.000912 0.000129 0
0.000930 0.000127 0
0.000946 0.000124 0
0.000958 0.000121 0
0.000966 0.000118 0
0.000969 0.000115 0
0.000967 0.000111 0
0.000960 0.000106 0
0.000946 0.000101 0
0.000925 0.000096 0
0.000897 0.000090 0
0.000862 0.000084 0
0.000819 0.000078 0
0.000767 0.000071 0
0.000708 0.000064 0
0.000641 0.000056 0
0.000566 0.000048 0
0.000483 0.000040 0
0.000395 0.000031 0
0.000301 0.000023 0
0.000203 0.000014 0
0.000102 0.000005 0
0.000000 0.000000 0
0.000000 0.000000 0
0.000069 0.000020 0
0.000137 0.000039 0
0.000206 0.000058 0
0.000274 0.000077 0
0.000343 0.000095 0
0.000412 0.000113 0
0.000481 0.000130 0
0.000550 0.000146 0
0.000619 0.000161 0
0.000689 0.000175 0
0.000758 0.000188 0
0.000828 0.000201 0
0.000897 0.000212 0
0.000967 0.000222 0
0.001036 0.000231 0
0.001106 0.000239 0
0.001174 0.000246 0
0.001243 0.000251 0
0.001310 0.000256 0
0.001377 0.000260 0
0.001442 0.000263 0
0.001505 0.000265 0
0.001567 0.000266 0
0.001626 0.000266 0
0.001682 0.000265 0
0.001734 0.000263 0
0.001783 0.000261 0
0.001827 0.000258 0
0.001865 0.000254 0
0.001896 0.000249 0
0.001921 0.000243 0
0.001937 0.000237 0
0.001944 0.000229 0
0.001941 0.000222 0
0.001926 0.000213 0
0.001898 0.000203 0
0.001858 0.000193 0
0.001802 0.000181 0
0.001732 0.000169 0
0.001645 0.000156 0
0.001543 0.000143 0
0.001424 0.000128 0
0.001289 0.000113 0
0.001138 0.000097 0
0.000973 0.000080 0
0.000795 0.000063 0
0.000607 0.000045 0
0.000409 0.000027 0
0.000206 0.000009 0
0.000000 0.000000 0
0.000000 0.000000 0
0.000103 0.000030 0
0.000206 0.000059 0
0.000309 0.000088 0
0.000412 0.000116 0
0.000515 0.000144 0
0.000618 0.000170 0
0.000722 0.000196 0
0.000825 0.000220 0
0.000929 0.000243 0
0.001034 0.000264 0
0.001138 0.000284 0
0.001242 0.000302 0
0.001347 0.000319 0
0.001452 0.000334 0
0.001556 0.000348 0
0.001660 0.000360 0
0.001764 0.000370 0
0.001866 0.000379 0
0.001968 0.000386 0
0.002068 0.000391 0
0.002166 0.000396 0
0.002262 0.000398 0
0.002355 0.000400 0
0.002444 0.000400 0
0.002529 0.000399 0
0.002608 0.000396 0
0.002682 0.000392 0
0.002748 0.000388 0
0.002806 0.000381 0
0.002855 0.000374 0
0.002893 0.000366 0
0.002918 0.000356 0
0.002930 0.000345 0
0.002926 0.000333 0
0.002905 0.000320 0
0.002865 0.000306 0
0.002805 0.000290 0
0.002723 0.000273 0
0.002618 0.000255 0
0.002488 0.000236 0
0.002334 0.000215 0
0.002155 0.000193 0
0.001952 0.000170 0
0.001724 0.000146 0
0.001475 0.000121 0
0.001206 0.000095 0
0.000920 0.000068 0
0.000621 0.000041 0
0.000313 0.000014 0
0.000000 0.000000 0
0.000000 0.000000 0
0.000137 0.000040 0
0.000274 0.000079 0
0.000412 0.000118 0
0.000549 0.000156 0
0.000687 0.000193 0
0.000825 0.000229 0
0.000963 0.000263 0
0.001101 0.000295 0
0.001240 0.000326 0
0.001379 0.000355 0
0.001518 0.000381 0
0.001658 0.000406 0
0.001798 0.000428 0
0.001938 0.000449 0
0.002077 0.000467 0
0.002216 0.000482 0
0.002355 0.000496 0
0.002493 0.000508 0
0.002629 0.000517 0
0.002763 0.000525 0
0.002895 0.000530 0
0.003023 0.000534 0
0.003148 0.000536 0
0.003268 0.000536 0
0.003383 0.000534 0
0.003490 0.000531 0
0.003590 0.000526 0
0.003681 0.000519 0
0.003760 0.000511 0
0.003827 0.000501 0
0.003879 0.000490 0
0.003915 0.000477 0
0.003933 0.000463 0
0.003930 0.000447 0
0.003904 0.000429 0
0.003853 0.000410 0
0.003774 0.000389 0
0.003666 0.000366 0
0.003527 0.000342 0
0.003355 0.000316 0
0.003150 0.000289 0
0.002910 0.000259 0
0.002637 0.000228 0
0.002332 0.000196 0
0.001996 0.000163 0
0.001632 0.000128 0
0.001246 0.000092 0
0.000841 0.000055 0
0.000424 0.000019 0
0.000000 0.000000 0
0.000000 0.000000 0
0.000172 0.000050 0
0.000343 0.000100 0
0.000515 0.000149 0
0.000687 0.000197 0
0.000859 0.000244 0
0.001031 0.000289 0
0.001204 0.000332 0
0.001377 0.000373 0
0.001551 0.000412 0
0.001725 0.000448 0
0.001900 0.000481 0
0.002075 0.000512 0
0.002251 0.000540 0
0.002426 0.000566 0
0.002601 0.000588 0
0.002776 0.000608 0
0.002950 0.000625 0
0.003123 0.000639 0
0.003294 0.000651 0
0.003464 0.000660 0
0.003630 0.000667 0
0.003792 0.000672 0
0.003950 0.000674 0
0.004102 0.000674 0
0.004247 0.000672 0
0.004384 0.000667 0
0.004511 0.000661 0
0.004627 0.000653 0
0.004729 0.000642 0
0.004816 0.000630 0
0.004885 0.000616 0
0.004933 0.000600 0
0.004959 0.000582 0
0.004958 0.000562 0
0.004929 0.000540 0
0.004869 0.000516 0
0.004774 0.000489 0
0.004641 0.000461 0
0.004469 0.000431 0
0.004255 0.000398 0
0.003998 0.000364 0
0.003697 0.000327 0
0.003353 0.000288 0
0.002966 0.000247 0
0.002541 0.000205 0
0.002080 0.000161 0
0.001588 0.000116 0
0.001073 0.000070 0
0.000541 0.000023 0
0.000000 0.000000 0
0.000000 0.000000 0
0.000206 0.000061 0
0.000412 0.000122 0
0.000618 0.000182 0
0.000825 0.000240 0
0.001031 0.000297 0
0.001239 0.000352 0
0.001446 0.000404 0
0.001655 0.000454 0
0.001864 0.000500 0
0.002073 0.000544 0
0.002284 0.000585 0
0.002495 0.000622 0
0.002706 0.000656 0
0.002917 0.000686 0
0.003129 0.000713 0
0.003340 0.000737 0
0.003550 0.000757 0
0.003759 0.000774 0
0.003967 0.000788 0
0.004171 0.000799 0
0.004373 0.000807 0
0.004570 0.000812 0
0.004762 0.000815 0
0.004947 0.000815 0
0.005125 0.000812 0
0.005293 0.000806 0
0.005449 0.000799 0
0.005591 0.000789 0
0.005718 0.000776 0
0.005827 0.000761 0
0.005914 0.000744 0
0.005977 0.000725 0
0.006013 0.000703 0
0.006018 0.000679 0
0.005988 0.000652 0
0.005920 0.000623 0
0.005810 0.000592 0
0.005655 0.000558 0
0.005450 0.000521 0
0.005195 0.000482 0
0.004886 0.000440 0
0.004523 0.000396 0
0.004106 0.000349 0
0.003636 0.000300 0
0.003117 0.000249 0
0.002553 0.000196 0
0.001951 0.000141 0
0.001319 0.000085 0
0.000665 0.000028 0
0.000000 0.000000 0
0.000000 0.000000 0
0.000241 0.000073 0
0.000481 0.000145 0
0.000722 0.000216 0
0.000963 0.000285 0
0.001205 0.000352 0
0.001447 0.000417 0
0.001690 0.000479 0
0.001933 0.000538 0
0.002178 0.000593 0
0.002423 0.000644 0
0.002670 0.000692 0
0.002917 0.000736 0
0.003164 0.000775 0
0.003412 0.000811 0
0.003661 0.000842 0
0.003909 0.000870 0
0.004156 0.000894 0
0.004402 0.000914 0
0.004647 0.000930 0
0.004888 0.000942 0
0.005126 0.000951 0
0.005360 0.000957 0
0.005587 0.000960 0
0.005807 0.000959 0
0.006019 0.000955 0
0.006219 0.000949 0
0.006406 0.000940 0
0.006578 0.000928 0
0.006732 0.000913 0
0.006865 0.000895 0
0.006973 0.000875 0
0.007054 0.000852 0
0.007102 0.000827 0
0.007115 0.000799 0
0.007087 0.000768 0
0.007014 0.000734 0
0.006891 0.000697 0
0.006715 0.000657 0
0.006481 0.000614 0
0.006185 0.000568 0
0.005824 0.000519 0
0.005398 0.000467 0
0.004906 0.000412 0
0.004350 0.000354 0
0.003732 0.000294 0
0.003060 0.000231 0
0.002340 0.000167 0
0.001582 0.000101 0
0.000798 0.000034 0
0.000000 0.000000 0
0.000000 0.000000 0
0.000275 0.000085 0
0.000550 0.000169 0
0.000826 0.000251 0
0.001102 0.000332 0
0.001379 0.000410 0
0.001656 0.000486 0
0.001934 0.000558 0
0.002214 0.000626 0
0.002494 0.000690 0
0.002776 0.000749 0
0.003059 0.000804 0
0.003342 0.000854 0
0.003627 0.000900 0
0.003913 0.000941 0
0.004199 0.000977 0
0.004485 0.001008 0
0.004770 0.001035 0
0.005054 0.001058 0
0.005337 0.001076 0
0.005617 0.001090 0
0.005893 0.001100 0
0.006164 0.001106 0
0.006428 0.001108 0
0.006685 0.001107 0
0.006932 0.001103 0
0.007167 0.001095 0
0.007387 0.001084 0
0.007591 0.001070 0
0.007774 0.001053 0
0.007934 0.001033 0
0.008067 0.001009 0
0.008167 0.000983 0
0.008232 0.000954 0
0.008256 0.000921 0
0.008233 0.000886 0
0.008158 0.000847 0
0.008026 0.000805 0
0.007831 0.000759 0
0.007568 0.000710 0
0.007233 0.000657 0
0.006821 0.000600 0
0.006331 0.000540 0
0.005761 0.000477 0
0.005115 0.000410 0
0.004394 0.000341 0
0.003606 0.000268 0
0.002760 0.000193 0
0.001867 0.000117 0
0.000942 0.000039 0
0.000000 0.000000 0
0.000000 0.000000 0
0.000310 0.000098 0
0.000620 0.000194 0
0.000931 0.000289 0
0.001242 0.000382 0
0.001554 0.000472 0
0.001867 0.000559 0
0.002181 0.000641 0
0.002496 0.000719 0
0.002813 0.000792 0
0.003131 0.000860 0
0.003451 0.000922 0
0.003773 0.000979 0
0.004095 0.001031 0
0.004419 0.001077 0
0.004744 0.001118 0
0.005068 0.001153 0
0.005393 0.001183 0
0.005717 0.001208 0
0.006039 0.001228 0
0.006358 0.001243 0
0.006674 0.001254 0
0.006984 0.001260 0
0.007288 0.001262 0
0.007583 0.001261 0
0.007868 0.001255 0
0.008140 0.001246 0
0.008397 0.001233 0
0.008634 0.001217 0
0.008850 0.001197 0
0.009040 0.001174 0
0.009200 0.001147 0
0.009325 0.001117 0
0.009409 0.001084 0
0.009448 0.001047 0
0.009434 0.001007 0
0.009361 0.000963 0
0.009222 0.000915 0
0.009012 0.000864 0
0.008723 0.000808 0
0.008349 0.000748 0
0.007887 0.000684 0
0.007331 0.000616 0
0.006682 0.000544 0
0.005940 0.000468 0
0.005110 0.000389 0
0.004198 0.000306 0
0.003216 0.000221 0
0.002178 0.000133 0
0.001099 0.000045 0
0.000000 0.000000 0
0.000000 0.000000 0
0.000345 0.000111 0
0.000691 0.000222 0
0.001036 0.000330 0
0.001383 0.000436 0
0.001730 0.000538 0
0.002079 0.000636 0
0.002429 0.000730 0
0.002781 0.000818 0
0.003135 0.000900 0
0.003491 0.000977 0
0.003849 0.001047 0
0.004208 0.001111 0
0.004570 0.001169 0
0.004933 0.001220 0
0.005297 0.001265 0
0.005662 0.001304 0
0.006027 0.001337 0
0.006392 0.001364 0
0.006755 0.001386 0
0.007116 0.001402 0
0.007473 0.001414 0
0.007824 0.001420 0
0.008169 0.001422 0
0.008506 0.001419 0
0.008831 0.001412 0
0.009143 0.001401 0
0.009438 0.001387 0
0.009713 0.001368 0
0.009965 0.001345 0
0.010189 0.001319 0
0.010379 0.001289 0
0.010532 0.001256 0
0.010640 0.001218 0
0.010698 0.001177 0
0.010697 0.001132 0
0.010630 0.001083 0
0.010489 0.001029 0
0.010267 0.000971 0
0.009954 0.000909 0
0.009545 0.000842 0
0.009032 0.000771 0
0.008411 0.000695 0
0.007679 0.000614 0
0.006838 0.000529 0
0.005891 0.000439 0
0.004846 0.000346 0
0.003717 0.000250 0
0.002518 0.000151 0
0.001272 0.000050 0
0.000000 0.000000 0
0.000000 0.000000 0
0.000381 0.000126 0
0.000761 0.000251 0
0.001143 0.000374 0
0.001525 0.000494 0
0.001908 0.000609 0
0.002294 0.000720 0
0.002681 0.000825 0
0.003070 0.000924 0
0.003461 0.001017 0
0.003855 0.001102 0
0.004252 0.001181 0
0.004651 0.001252 0
0.005052 0.001316 0
0.005456 0.001372 0
0.005861 0.001422 0
0.006267 0.001464 0
0.006675 0.001500 0
0.007082 0.001529 0
0.007488 0.001552 0
0.007892 0.001569 0
0.008292 0.001581 0
0.008688 0.001587 0
0.009076 0.001588 0
0.009456 0.001584 0
0.009824 0.001576 0
0.010179 0.001563 0
0.010516 0.001546 0
0.010832 0.001524 0
0.011123 0.001499 0
0.011385 0.001469 0
0.011611 0.001436 0
0.011796 0.001398 0
0.011932 0.001356 0
0.012013 0.001311 0
0.012030 0.001260 0
0.011974 0.001206 0
0.011836 0.001147 0
0.011606 0.001083 0
0.011274 0.001014 0
0.010831 0.000940 0
0.010269 0.000860 0
0.009581 0.000776 0
0.008764 0.000686 0
0.007818 0.000591 0
0.006747 0.000491 0
0.005559 0.000387 0
0.004268 0.000280 0
0.002895 0.000169 0
0.001463 0.000057 0
0.000000 0.000000 0
0.000000 0.000000 0
0.000416 0.000142 0
0.000833 0.000283 0
0.001250 0.000422 0
0.001668 0.000556 0
0.002088 0.000686 0
0.002510 0.000811 0
0.002935 0.000928 0
0.003362 0.001039 0
0.003792 0.001142 0
0.004225 0.001237 0
0.004661 0.001324 0
0.005100 0.001402 0
0.005543 0.001472 0
0.005988 0.001534 0
0.006436 0.001588 0
0.006886 0.001633 0
0.007337 0.001672 0
0.007789 0.001703 0
0.008240 0.001727 0
0.008689 0.001745 0
0.009136 0.001756 0
0.009577 0.001762 0
0.010012 0.001762 0
0.010438 0.001756 0
0.010853 0.001746 0
0.011253 0.001731 0
0.011636 0.001711 0
0.011997 0.001686 0
0.012331 0.001658 0
0.012635 0.001624 0
0.012901 0.001587 0
0.013122 0.001545 0
0.013293 0.001499 0
0.013403 0.001448 0
0.013443 0.001393 0
0.013404 0.001333 0
0.013273 0.001268 0
0.013040 0.001197 0
0.012693 0.001122 0
0.012220 0.001040 0
0.011610 0.000953 0
0.010856 0.000860 0
0.009951 0.000761 0
0.008895 0.000656 0
0.007690 0.000546 0
0.006346 0.000430 0
0.004880 0.000311 0
0.003313 0.000188 0
0.001675 0.000063 0
0.000000 0.000000 0
0.000000 0.000000 0
0.000452 0.000160 0
0.000905 0.000318 0
0.001358 0.000474 0
0.001813 0.000625 0
0.002270 0.000770 0
0.002730 0.000909 0
0.003192 0.001040 0
0.003658 0.001163 0
0.004127 0.001277 0
0.004601 0.001382 0
0.005078 0.001478 0
0.005559 0.001563 0
0.006044 0.001640 0
0.006533 0.001707 0
0.007026 0.001765 0
0.007521 0.001814 0
0.008018 0.001854 0
0.008516 0.001887 0
0.009014 0.001912 0
0.009512 0.001930 0
0.010006 0.001941 0
0.010497 0.001945 0
0.010981 0.001943 0
0.011457 0.001936 0
0.011921 0.001923 0
0.012371 0.001905 0
0.012803 0.001882 0
0.013212 0.001855 0
0.013595 0.001822 0
0.013945 0.001785 0
0.014256 0.001744 0
0.014520 0.001697 0
0.014729 0.001646 0
0.014874 0.001591 0
0.014944 0.001530 0
0.014928 0.001464 0
0.014811 0.001393 0
0.014581 0.001316 0
0.014224 0.001233 0
0.013724 0.001144 0
0.013070 0.001049 0
0.012250 0.000947 0
0.011255 0.000838 0
0.010083 0.000723 0
0.008735 0.000602 0
0.007222 0.000475 0
0.005562 0.000343 0
0.003781 0.000208 0
0.001913 0.000070 0
0.000000 0.000000 0
0.000000 0.000000 0
0.000489 0.000180 0
0.000978 0.000357 0
0.001468 0.000531 0
0.001960 0.000700 0
0.002455 0.000863 0
0.002952 0.001017 0
0.003454 0.001163 0
0.003959 0.001299 0
0.004469 0.001425 0
0.004984 0.001540 0
0.005503 0.001645 0
0.006028 0.001738 0
0.006558 0.001821 0
0.007092 0.001893 0
0.007631 0.001955 0
0.008173 0.002006 0
0.008718 0.002049 0
0.009266 0.002083 0
0.009814 0.002108 0
0.010362 0.002125 0
0.010908 0.002135 0
0.011451 0.002138 0
0.011988 0.002134 0
0.012517 0.002125 0
0.013034 0.002109 0
0.013538 0.002088 0
0.014023 0.002062 0
0.014486 0.002030 0
0.014921 0.001994 0
0.015322 0.001952 0
0.015683 0.001906 0
0.015996 0.001855 0
0.016251 0.001799 0
0.016437 0.001738 0
0.016544 0.001672 0
0.016557 0.001600 0
0.016461 0.001522 0
0.016241 0.001438 0
0.015880 0.001348 0
0.015360 0.001251 0
0.014665 0.001147 0
0.013779 0.001036 0
0.012693 0.000918 0
0.011399 0.000793 0
0.009898 0.000660 0
0.008200 0.000521 0
0.006326 0.000377 0
0.004306 0.000228 0
0.002181 0.000076 0
0.000000 0.000000 0
0.000000 0.000000 0
0.000526 0.000201 0
0.001052 0.000400 0
0.001579 0.000595 0
0.002109 0.000784 0
0.002642 0.000965 0
0.003178 0.001137 0
0.003719 0.001298 0
0.004265 0.001449 0
0.004817 0.001587 0
0.005375 0.001713 0
0.005939 0.001827 0
0.006509 0.001928 0
0.007085 0.002017 0
0.007667 0.002094 0
0.008254 0.002159 0
0.008846 0.002213 0
0.009443 0.002257 0
0.010042 0.002292 0
0.010643 0.002317 0
0.011245 0.002333 0
0.011846 0.002341 0
0.012445 0.002342 0
0.013038 0.002336 0
0.013623 0.002323 0
0.014198 0.002304 0
0.014759 0.002279 0
0.015302 0.002249 0
0.015823 0.002213 0
0.016316 0.002172 0
0.016775 0.002126 0
0.017192 0.002075 0
0.017559 0.002019 0
0.017866 0.001957 0
0.018102 0.001890 0
0.018252 0.001818 0
0.018303 0.001740 0
0.018236 0.001655 0
0.018034 0.001564 0
0.017677 0.001466 0
0.017142 0.001362 0
0.016411 0.001249 0
0.015463 0.001129 0
0.014283 0.001000 0
0.012862 0.000864 0
0.011197 0.000720 0
0.009297 0.000569 0
0.007186 0.000412 0
0.004899 0.000249 0
0.002484 0.000084 0
0.000000 0.000000 0
0.000000 0.000000 0
0.000563 0.000226 0
0.001126 0.000449 0
0.001692 0.000667 0
0.002260 0.000877 0
0.002831 0.001079 0
0.003408 0.001270 0
0.003990 0.001448 0
0.004578 0.001614 0
0.005173 0.001765 0
0.005775 0.001903 0
0.006385 0.002026 0
0.007002 0.002135 0
0.007627 0.002230 0
0.008259 0.002311 0
0.008898 0.002380 0
0.009543 0.002436 0
0.010194 0.002481 0
0.010848 0.002515 0
0.011506 0.002539 0
0.012166 0.002554 0
0.012825 0.002560 0
0.013483 0.002558 0
0.014136 0.002548 0
0.014783 0.002532 0
0.015420 0.002509 0
0.016043 0.002480 0
0.016649 0.002445 0
0.017233 0.002404 0
0.017789 0.002358 0
0.018311 0.002307 0
0.018791 0.002250 0
0.019219 0.002188 0
0.019586 0.002121 0
0.019878 0.002048 0
0.020081 0.001969 0
0.020178 0.001884 0
0.020150 0.001792 0
0.019975 0.001694 0
0.019630 0.001588 0
0.019089 0.001475 0
0.018328 0.001353 0
0.017321 0.001223 0
0.016048 0.001085 0
0.014494 0.000938 0
0.012653 0.000782 0
0.010534 0.000618 0
0.008160 0.000448 0
0.005572 0.000271 0
0.002828 0.000091 0
0.000000 0.000000 0
0.000000 0.000000 0
0.000600 0.000253 0
0.001202 0.000503 0
0.001805 0.000747 0
0.002412 0.000982 0
0.003024 0.001206 0
0.003641 0.001418 0
0.004265 0.001615 0
0.004897 0.001797 0
0.005537 0.001963 0
0.006186 0.002112 0
0.006844 0.002245 0
0.007511 0.002362 0
0.008187 0.002463 0
0.008873 0.002548 0
0.009566 0.002620 0
0.010267 0.002677 0
0.010975 0.002722 0
0.011689 0.002755 0
0.012407 0.002778 0
0.013128 0.002790 0
0.013851 0.002793 0
0.014572 0.002787 0
0.015290 0.002773 0
0.016003 0.002752 0
0.016706 0.002725 0
0.017397 0.002690 0
0.018071 0.002650 0
0.018724 0.002604 0
0.019350 0.002553 0
0.019941 0.002496 0
0.020490 0.002433 0
0.020987 0.002365 0
0.021421 0.002291 0
0.021778 0.002211 0
0.022042 0.002125 0
0.022196 0.002033 0
0.022216 0.001934 0
0.022079 0.001827 0
0.021757 0.001713 0
0.021220 0.001591 0
0.020437 0.001460 0
0.019377 0.001320 0
0.018012 0.001171 0
0.016320 0.001013 0
0.014292 0.000845 0
0.011932 0.000668 0
0.009265 0.000484 0
0.006339 0.000294 0
0.003221 0.000098 0
0.000000 0.000000 0
0.000000 0.000000 0
0.000638 0.000284 0
0.001278 0.000564 0
0.001920 0.000838 0
0.002567 0.001100 0
0.003219 0.001350 0
0.003879 0.001585 0
0.004546 0.001803 0
0.005223 0.002002 0
0.005910 0.002183 0
0.006608 0.002345 0
0.007317 0.002488 0
0.008037 0.002612 0
0.008768 0.002718 0
0.009510 0.002807 0
0.010262 0.002880 0
0.011023 0.002939 0
0.011793 0.002983 0
0.012570 0.003014 0
0.013353 0.003033 0
0.014140 0.003042 0
0.014929 0.003041 0
0.015719 0.003030 0
0.016508 0.003012 0
0.017291 0.002986 0
0.018066 0.002952 0
0.018830 0.002912 0
0.019579 0.002866 0
0.020306 0.002814 0
0.021007 0.002756 0
0.021675 0.002692 0
0.022300 0.002623 0
0.022874 0.002548 0
0.023383 0.002467 0
0.023815 0.002380 0
0.024151 0.002287 0
0.024371 0.002186 0
0.024451 0.002079 0
0.024364 0.001964 0
0.024077 0.001841 0
0.023556 0.001709 0
0.022761 0.001569 0
0.021655 0.001418 0
0.020201 0.001258 0
0.018370 0.001088 0
0.016142 0.000908 0
0.013520 0.000719 0
0.010527 0.000521 0
0.007217 0.000316 0
0.003673 0.000106 0
0.000000 0.000000 0
0.000000 0.000000 0
0.000677 0.000320 0
0.001355 0.000635 0
0.002037 0.000941 0
0.002724 0.001235 0
0.003417 0.001513 0
0.004120 0.001774 0
0.004833 0.002014 0
0.005557 0.002233 0
0.006293 0.002429 0
0.007043 0.002604 0
0.007805 0.002757 0
0.008582 0.002888 0
0.009371 0.002999 0
0.010173 0.003091 0
0.010988 0.003165 0
0.011814 0.003223 0
0.012650 0.003265 0
0.013495 0.003293 0
0.014348 0.003309 0
0.015207 0.003313 0
0.016069 0.003306 0
0.016933 0.003290 0
0.017797 0.003265 0
0.018657 0.003233 0
0.019511 0.003193 0
0.020354 0.003146 0
0.021182 0.003093 0