# vtk DataFile Version 2.0
generated by CFD-lab course output (written by Tobias Neckel) 
ASCII

DATASET STRUCTURED_GRID
DIMENSIONS  51 51 1 
POINTS 2601 float

0.000000 0.000000 0
0.020000 0.000000 0
0.040000 0.000000 0
0.060000 0.000000 0
0.080000 0.000000 0
0.100000 0.000000 0
0.120000 0.000000 0
0.140000 0.000000 0
0.160000 0.000000 0
0.180000 0.000000 0
0.200000 0.000000 0
0.220000 0.000000 0
0.240000 0.000000 0
0.260000 0.000000 0
0.280000 0.000000 0
0.300000 0.000000 0
0.320000 0.000000 0
0.340000 0.000000 0
0.360000 0.000000 0
0.380000 0.000000 0
0.400000 0.000000 0
0.420000 0.000000 0
0.440000 0.000000 0
0.460000 0.000000 0
0.480000 0.000000 0
0.500000 0.000000 0
0.520000 0.000000 0
0.540000 0.000000 0
0.560000 0.000000 0
0.580000 0.000000 0
0.600000 0.000000 0
0.620000 0.000000 0
0.640000 0.000000 0
0.660000 0.000000 0
0.680000 0.000000 0
0.700000 0.000000 0
0.720000 0.000000 0
0.740000 0.000000 0
0.760000 0.000000 0
0.780000 0.000000 0
0.800000 0.000000 0
0.820000 0.000000 0
0.840000 0.000000 0
0.860000 0.000000 0
0.880000 0.000000 0
0.900000 0.000000 0
0.920000 0.000000 0
0.940000 0.000000 0
0.960000 0.000000 0
0.980000 0.000000 0
1.000000 0.000000 0
0.000000 0.020000 0
0.020000 0.020000 0
0.040000 0.020000 0
0.060000 0.020000 0
0.080000 0.020000 0
0.100000 0.020000 0
0.120000 0.020000 0
0.140000 0.020000 0
0.160000 0.020000 0
0.180000 0.020000 0
0.200000 0.020000 0
0.220000 0.020000 0
0.240000 0.020000 0
0.260000 0.020000 0
0.280000 0.020000 0
0.300000 0.020000 0
0.320000 0.020000 0
0.340000 0.020000 0
0.360000 0.020000 0
0.380000 0.020000 0
0.400000 0.020000 0
0.420000 0.020000 0
0.440000 0.020000 0
0.460000 0.020000 0
0.480000 0.020000 0
0.500000 0.020000 0
0.520000 0.020000 0
0.540000 0.020000 0
0.560000 0.020000 0
0.580000 0.020000 0
0.600000 0.020000 0
0.620000 0.020000 0
0.640000 0.020000 0
0.660000 0.020000 0
0.680000 0.020000 0
0.700000 0.020000 0
0.720000 0.020000 0
0.740000 0.020000 0
0.760000 0.020000 0
0.780000 0.020000 0
0.800000 0.020000 0
0.820000 0.020000 0
0.840000 0.020000 0
0.860000 0.020000 0
0.880000 0.020000 0
0.900000 0.020000 0
0.920000 0.020000 0
0.940000 0.020000 0
0.960000 0.020000 0
0.980000 0.020000 0
1.000000 0.020000 0
0.000000 0.040000 0
0.020000 0.040000 0
0.040000 0.040000 0
0.060000 0.040000 0
0.080000 0.040000 0
0.100000 0.040000 0
0.120000 0.040000 0
0.140000 0.040000 0
0.160000 0.040000 0
0.180000 0.040000 0
0.200000 0.040000 0
0.220000 0.040000 0
0.240000 0.040000 0
0.260000 0.040000 0
0.280000 0.040000 0
0.300000 0.040000 0
0.320000 0.040000 0
0.340000 0.040000 0
0.360000 0.040000 0
0.380000 0.040000 0
0.400000 0.040000 0
0.420000 0.040000 0
0.440000 0.040000 0
0.460000 0.040000 0
0.480000 0.040000 0
0.500000 0.040000 0
0.520000 0.040000 0
0.540000 0.040000 0
0.560000 0.040000 0
0.580000 0.040000 0
0.600000 0.040000 0
0.620000 0.040000 0
0.640000 0.040000 0
0.660000 0.040000 0
0.680000 0.040000 0
0.700000 0.040000 0
0.720000 0.040000 0
0.740000 0.040000 0
0.760000 0.040000 0
0.780000 0.040000 0
0.800000 0.040000 0
0.820000 0.040000 0
0.840000 0.040000 0
0.860000 0.040000 0
0.880000 0.040000 0
0.900000 0.040000 0
0.920000 0.040000 0
0.940000 0.040000 0
0.960000 0.040000 0
0.980000 0.040000 0
1.000000 0.040000 0
0.000000 0.060000 0
0.020000 0.060000 0
0.040000 0.060000 0
0.060000 0.060000 0
0.080000 0.060000 0
0.100000 0.060000 0
0.120000 0.060000 0
0.140000 0.060000 0
0.160000 0.060000 0
0.180000 0.060000 0
0.200000 0.060000 0
0.220000 0.060000 0
0.240000 0.060000 0
0.260000 0.060000 0
0.280000 0.060000 0
0.300000 0.060000 0
0.320000 0.060000 0
0.340000 0.060000 0
0.360000 0.060000 0
0.380000 0.060000 0
0.400000 0.060000 0
0.420000 0.060000 0
0.440000 0.060000 0
0.460000 0.060000 0
0.480000 0.060000 0
0.500000 0.060000 0
0.520000 0.060000 0
0.540000 0.060000 0
0.560000 0.060000 0
0.580000 0.060000 0
0.600000 0.060000 0
0.620000 0.060000 0
0.640000 0.060000 0
0.660000 0.060000 0
0.680000 0.060000 0
0.700000 0.060000 0
0.720000 0.060000 0
0.740000 0.060000 0
0.760000 0.060000 0
0.780000 0.060000 0
0.800000 0.060000 0
0.820000 0.060000 0
0.840000 0.060000 0
0.860000 0.060000 0
0.880000 0.060000 0
0.900000 0.060000 0
0.920000 0.060000 0
0.940000 0.060000 0
0.960000 0.060000 0
0.980000 0.060000 0
1.000000 0.060000 0
0.000000 0.080000 0
0.020000 0.080000 0
0.040000 0.080000 0
0.060000 0.080000 0
0.080000 0.080000 0
0.100000 0.080000 0
0.120000 0.080000 0
0.140000 0.080000 0
0.160000 0.080000 0
0.180000 0.080000 0
0.200000 0.080000 0
0.220000 0.080000 0
0.240000 0.080000 0
0.260000 0.080000 0
0.280000 0.080000 0
0.300000 0.080000 0
0.320000 0.080000 0
0.340000 0.080000 0
0.360000 0.080000 0
0.380000 0.080000 0
0.400000 0.080000 0
0.420000 0.080000 0
0.440000 0.080000 0
0.460000 0.080000 0
0.480000 0.080000 0
0.500000 0.080000 0
0.520000 0.080000 0
0.540000 0.080000 0
0.560000 0.080000 0
0.580000 0.080000 0
0.600000 0.080000 0
0.620000 0.080000 0
0.640000 0.080000 0
0.660000 0.080000 0
0.680000 0.080000 0
0.700000 0.080000 0
0.720000 0.080000 0
0.740000 0.080000 0
0.760000 0.080000 0
0.780000 0.080000 0
0.800000 0.080000 0
0.820000 0.080000 0
0.840000 0.080000 0
0.860000 0.080000 0
0.880000 0.080000 0
0.900000 0.080000 0
0.920000 0.080000 0
0.940000 0.080000 0
0.960000 0.080000 0
0.980000 0.080000 0
1.000000 0.080000 0
0.000000 0.100000 0
0.020000 0.100000 0
0.040000 0.100000 0
0.060000 0.100000 0
0.080000 0.100000 0
0.100000 0.100000 0
0.120000 0.100000 0
0.140000 0.100000 0
0.160000 0.100000 0
0.180000 0.100000 0
0.200000 0.100000 0
0.220000 0.100000 0
0.240000 0.100000 0
0.260000 0.100000 0
0.280000 0.100000 0
0.300000 0.100000 0
0.320000 0.100000 0
0.340000 0.100000 0
0.360000 0.100000 0
0.380000 0.100000 0
0.400000 0.100000 0
0.420000 0.100000 0
0.440000 0.100000 0
0.460000 0.100000 0
0.480000 0.100000 0
0.500000 0.100000 0
0.520000 0.100000 0
0.540000 0.100000 0
0.560000 0.100000 0
0.580000 0.100000 0
0.600000 0.100000 0
0.620000 0.100000 0
0.640000 0.100000 0
0.660000 0.100000 0
0.680000 0.100000 0
0.700000 0.100000 0
0.720000 0.100000 0
0.740000 0.100000 0
0.760000 0.100000 0
0.780000 0.100000 0
0.800000 0.100000 0
0.820000 0.100000 0
0.840000 0.100000 0
0.860000 0.100000 0
0.880000 0.100000 0
0.900000 0.100000 0
0.920000 0.100000 0
0.940000 0.100000 0
0.960000 0.100000 0
0.980000 0.100000 0
1.000000 0.100000 0
0.000000 0.120000 0
0.020000 0.120000 0
0.040000 0.120000 0
0.060000 0.120000 0
0.080000 0.120000 0
0.100000 0.120000 0
0.120000 0.120000 0
0.140000 0.120000 0
0.160000 0.120000 0
0.180000 0.120000 0
0.200000 0.120000 0
0.220000 0.120000 0
0.240000 0.120000 0
0.260000 0.120000 0
0.280000 0.120000 0
0.300000 0.120000 0
0.320000 0.120000 0
0.340000 0.120000 0
0.360000 0.120000 0
0.380000 0.120000 0
0.400000 0.120000 0
0.420000 0.120000 0
0.440000 0.120000 0
0.460000 0.120000 0
0.480000 0.120000 0
0.500000 0.120000 0
0.520000 0.120000 0
0.540000 0.120000 0
0.560000 0.120000 0
0.580000 0.120000 0
0.600000 0.120000 0
0.620000 0.120000 0
0.640000 0.120000 0
0.660000 0.120000 0
0.680000 0.120000 0
0.700000 0.120000 0
0.720000 0.120000 0
0.740000 0.120000 0
0.760000 0.120000 0
0.780000 0.120000 0
0.800000 0.120000 0
0.820000 0.120000 0
0.840000 0.120000 0
0.860000 0.120000 0
0.880000 0.120000 0
0.900000 0.120000 0
0.920000 0.120000 0
0.940000 0.120000 0
0.960000 0.120000 0
0.980000 0.120000 0
1.000000 0.120000 0
0.000000 0.140000 0
0.020000 0.140000 0
0.040000 0.140000 0
0.060000 0.140000 0
0.080000 0.140000 0
0.100000 0.140000 0
0.120000 0.140000 0
0.140000 0.140000 0
0.160000 0.140000 0
0.180000 0.140000 0
0.200000 0.140000 0
0.220000 0.140000 0
0.240000 0.140000 0
0.260000 0.140000 0
0.280000 0.140000 0
0.300000 0.140000 0
0.320000 0.140000 0
0.340000 0.140000 0
0.360000 0.140000 0
0.380000 0.140000 0
0.400000 0.140000 0
0.420000 0.140000 0
0.440000 0.140000 0
0.460000 0.140000 0
0.480000 0.140000 0
0.500000 0.140000 0
0.520000 0.140000 0
0.540000 0.140000 0
0.560000 0.140000 0
0.580000 0.140000 0
0.600000 0.140000 0
0.620000 0.140000 0
0.640000 0.140000 0
0.660000 0.140000 0
0.680000 0.140000 0
0.700000 0.140000 0
0.720000 0.140000 0
0.740000 0.140000 0
0.760000 0.140000 0
0.780000 0.140000 0
0.800000 0.140000 0
0.820000 0.140000 0
0.840000 0.140000 0
0.860000 0.140000 0
0.880000 0.140000 0
0.900000 0.140000 0
0.920000 0.140000 0
0.940000 0.140000 0
0.960000 0.140000 0
0.980000 0.140000 0
1.000000 0.140000 0
0.000000 0.160000 0
0.020000 0.160000 0
0.040000 0.160000 0
0.060000 0.160000 0
0.080000 0.160000 0
0.100000 0.160000 0
0.120000 0.160000 0
0.140000 0.160000 0
0.160000 0.160000 0
0.180000 0.160000 0
0.200000 0.160000 0
0.220000 0.160000 0
0.240000 0.160000 0
0.260000 0.160000 0
0.280000 0.160000 0
0.300000 0.160000 0
0.320000 0.160000 0
0.340000 0.160000 0
0.360000 0.160000 0
0.380000 0.160000 0
0.400000 0.160000 0
0.420000 0.160000 0
0.440000 0.160000 0
0.460000 0.160000 0
0.480000 0.160000 0
0.500000 0.160000 0
0.520000 0.160000 0
0.540000 0.160000 0
0.560000 0.160000 0
0.580000 0.160000 0
0.600000 0.160000 0
0.620000 0.160000 0
0.640000 0.160000 0
0.660000 0.160000 0
0.680000 0.160000 0
0.700000 0.160000 0
0.720000 0.160000 0
0.740000 0.160000 0
0.760000 0.160000 0
0.780000 0.160000 0
0.800000 0.160000 0
0.820000 0.160000 0
0.840000 0.160000 0
0.860000 0.160000 0
0.880000 0.160000 0
0.900000 0.160000 0
0.920000 0.160000 0
0.940000 0.160000 0
0.960000 0.160000 0
0.980000 0.160000 0
1.000000 0.160000 0
0.000000 0.180000 0
0.020000 0.180000 0
0.040000 0.180000 0
0.060000 0.180000 0
0.080000 0.180000 0
0.100000 0.180000 0
0.120000 0.180000 0
0.140000 0.180000 0
0.160000 0.180000 0
0.180000 0.180000 0
0.200000 0.180000 0
0.220000 0.180000 0
0.240000 0.180000 0
0.260000 0.180000 0
0.280000 0.180000 0
0.300000 0.180000 0
0.320000 0.180000 0
0.340000 0.180000 0
0.360000 0.180000 0
0.380000 0.180000 0
0.400000 0.180000 0
0.420000 0.180000 0
0.440000 0.180000 0
0.460000 0.180000 0
0.480000 0.180000 0
0.500000 0.180000 0
0.520000 0.180000 0
0.540000 0.180000 0
0.560000 0.180000 0
0.580000 0.180000 0
0.600000 0.180000 0
0.620000 0.180000 0
[...]
POINT_DATA 2601 

VECTORS velocity float
0.000000 0.000000 0
0.000000 0.000000 0
0.000000 0.000000 0
0.000000 0.000000 0
0.000000 0.000000 0
0.000000 0.000000 0
0.000000 0.000000 0
0.000000 0.000000 0
0.000000 0.000000 0
0.000000 0.000000 0
0.000000 0.000000 0
0.000000 0.000000 0
0.000000 0.000000 0
0.000000 0.000000 0
0.000000 0.000000 0
0.000000 0.000000 0
0.000000 0.000000 0
0.000000 0.000000 0
0.000000 0.000000 0
0.000000 0.000000 0
0.000000 0.000000 0
0.000000 0.000000 0
0.000000 0.000000 0
0.000000 0.000000 0
0.000000 0.000000 0
0.000000 0.000000 0
0.000000 0.000000 0
0.000000 0.000000 0
0.000000 0.000000 0
0.000000 0.000000 0
0.000000 0.000000 0
0.000000 0.000000 0
0.000000 0.000000 0
0.000000 0.000000 0
0.000000 0.000000 0
0.000000 0.000000 0
0.000000 0.000000 0
0.000000 0.000000 0
0.000000 0.000000 0
0.000000 0.000000 0
0.000000 0.000000 0
0.000000 0.000000 0
0.000000 0.000000 0
0.000000 0.000000 0
0.000000 0.000000 0
0.000000 0.000000 0
0.000000 0.000000 0
0.000000 0.000000 0
0.000000 0.000000 0
0.000000 0.000000 0
0.000000 0.000000 0
0.000000 0.000000 0
0.000008 0.000003 0
0.000017 0.000006 0
0.000026 0.000009 0
0.000034 0.000012 0
0.000043 0.000014 0
0.000052 0.000017 0
0.000061 0.000019 0
0.000070 0.000021 0
0.000080 0.000022 0
0.000090 0.000024 0
0.000100 0.000025 0
0.000110 0.000025 0
0.000120 0.000026 0
0.000131 0.000026 0
0.000142 0.000025 0
0.000153 0.000025 0
0.000164 0.000024 0
0.000176 0.000023 0
0.000187 0.000021 0
0.000198 0.000020 0
0.000210 0.000018 0
0.000221 0.000016 0
0.000232 0.000014 0
0.000243 0.000011 0
0.000253 0.000009 0
0.000263 0.000007 0
0.000273 0.000004 0
0.000281 0.000002 0
0.000289 -0.000001 0
0.000296 -0.000003 0
0.000301 -0.000005 0
0.000305 -0.000008 0
0.000307 -0.000010 0
0.000308 -0.000011 0
0.000307 -0.000013 0
0.000303 -0.000014 0
0.000298 -0.000015 0
0.000289 -0.000016 0
0.000278 -0.000016 0
0.000265 -0.000016 0
0.000248 -0.000015 0
0.000229 -0.000015 0
0.000208 -0.000013 0
0.000183 -0.000012 0
0.000157 -0.000010 0
0.000128 -0.000008 0
0.000098 -0.000006 0
0.000066 -0.000004 0
0.000033 -0.000001 0
0.000000 0.000000 0
0.000000 0.000000 0
0.000017 0.000006 0
0.000034 0.000012 0
0.000052 0.000018 0
0.000069 0.000024 0
0.000087 0.000029 0
0.000105 0.000034 0
0.000124 0.000038 0
0.000143 0.000042 0
0.000162 0.000045 0
0.000182 0.000048 0
0.000202 0.000050 0
0.000223 0.000051 0
0.000244 0.000052 0
0.000265 0.000052 0
0.000287 0.000052 0
0.000310 0.000050 0
0.000332 0.000049 0
0.000355 0.000046 0
0.000378 0.000043 0
0.000402 0.000040 0
0.000425 0.000037 0
0.000447 0.000032 0
0.000470 0.000028 0
0.000492 0.000024 0
0.000513 0.000019 0
0.000533 0.000014 0
0.000552 0.000009 0
0.000570 0.000004 0
0.000586 -0.000001 0
0.000599 -0.000006 0
0.000610 -0.000011 0
0.000619 -0.000015 0
0.000624 -0.000019 0
0.000625 -0.000023 0
0.000623 -0.000026 0
0.000616 -0.000028 0
0.000604 -0.000030 0
0.000588 -0.000031 0
0.000566 -0.000032 0
0.000538 -0.000032 0
0.000505 -0.000031 0
0.000466 -0.000029 0
0.000422 -0.000027 0
0.000373 -0.000024 0
0.000319 -0.000021 0
0.000261 -0.000017 0
0.000199 -0.000012 0
0.000134 -0.000007 0
0.000068 -0.000002 0
0.000000 0.000000 0
0.000000 0.000000 0
0.000026 0.000009 0
0.000053 0.000019 0
0.000079 0.000028 0
0.000106 0.000037 0
0.000133 0.000045 0
0.000161 0.000052 0
0.000189 0.000059 0
0.000218 0.000065 0
0.000247 0.000070 0
0.000278 0.000074 0
0.000309 0.000077 0
0.000340 0.000079 0
0.000373 0.000080 0
0.000406 0.000080 0
0.000440 0.000080 0
0.000474 0.000078 0
0.000509 0.000075 0
0.000544 0.000072 0
0.000579 0.000067 0
0.000615 0.000062 0
0.000650 0.000057 0
0.000685 0.000051 0
0.000720 0.000044 0
0.000753 0.000037 0
0.000786 0.000030 0
0.000817 0.000022 0
0.000847 0.000014 0
0.000874 0.000007 0
0.000898 -0.000001 0
0.000919 -0.000008 0
0.000937 -0.000015 0
0.000950 -0.000022 0
0.000958 -0.000028 0
0.000961 -0.000033 0
0.000958 -0.000038 0
0.000947 -0.000042 0
0.000930 -0.000045 0
0.000905 -0.000047 0
0.000871 -0.000048 0
0.000829 -0.000048 0
0.000779 -0.000047 0
0.000720 -0.000044 0
0.000652 -0.000041 0
0.000576 -0.000036 0
0.000493 -0.000031 0
0.000403 -0.000025 0
0.000307 -0.000018 0
0.000207 -0.000011 0
0.000104 -0.000004 0
0.000000 0.000000 0
0.000000 0.000000 0
0.000036 0.000013 0
0.000072 0.000026 0
0.000108 0.000039 0
0.000145 0.000051 0
0.000182 0.000062 0
0.000220 0.000072 0
0.000259 0.000081 0
0.000298 0.000090 0
0.000339 0.000097 0
0.000380 0.000102 0
0.000423 0.000107 0
0.000466 0.000110 0
0.000510 0.000111 0
0.000556 0.000111 0
0.000602 0.000110 0
0.000649 0.000108 0
0.000697 0.000104 0
0.000745 0.000100 0
0.000794 0.000094 0
0.000843 0.000087 0
0.000891 0.000079 0
0.000940 0.000071 0
0.000987 0.000062 0
0.001034 0.000052 0
0.001079 0.000042 0
0.001122 0.000032 0
0.001163 0.000022 0
0.001201 0.000011 0
0.001235 0.000001 0
0.001264 -0.000009 0
0.001289 -0.000019 0
0.001308 -0.000028 0
0.001320 -0.000036 0
0.001324 -0.000044 0
0.001320 -0.000050 0
0.001307 -0.000056 0
0.001284 -0.000060 0
0.001250 -0.000063 0
0.001205 -0.000064 0
0.001147 -0.000064 0
0.001078 -0.000063 0
0.000997 -0.000059 0
0.000903 -0.000055 0
0.000799 -0.000049 0
0.000684 -0.000042 0
0.000559 -0.000034 0
0.000427 -0.000025 0
0.000288 -0.000015 0
0.000145 -0.000005 0
0.000000 0.000000 0
0.000000 0.000000 0
0.000046 0.000017 0
0.000093 0.000034 0
0.000140 0.000051 0
0.000187 0.000066 0
0.000235 0.000081 0
0.000284 0.000094 0
0.000334 0.000107 0
0.000385 0.000117 0
0.000437 0.000127 0
0.000491 0.000134 0
0.000546 0.000140 0
0.000602 0.000144 0
0.000659 0.000146 0
0.000718 0.000146 0
0.000778 0.000145 0
0.000839 0.000142 0
0.000901 0.000137 0
0.000964 0.000131 0
0.001027 0.000124 0
0.001090 0.000115 0
0.001154 0.000105 0
0.001217 0.000095 0
0.001279 0.000083 0
0.001340 0.000071 0
0.001399 0.000058 0
0.001455 0.000045 0
0.001509 0.000031 0
0.001558 0.000018 0
0.001603 0.000005 0
0.001643 -0.000008 0
0.001676 -0.000021 0
0.001701 -0.000033 0
0.001718 -0.000044 0
0.001725 -0.000053 0
0.001721 -0.000062 0
0.001705 -0.000069 0
0.001676 -0.000075 0
0.001633 -0.000078 0
0.001576 -0.000081 0
0.001502 -0.000081 0
0.001412 -0.000079 0
0.001307 -0.000075 0
0.001185 -0.000070 0
0.001049 -0.000062 0
0.000898 -0.000053 0
0.000735 -0.000043 0
0.000561 -0.000032 0
0.000379 -0.000019 0
0.000191 -0.000006 0
0.000000 0.000000 0
0.000000 0.000000 0
0.000058 0.000022 0
0.000116 0.000043 0
0.000174 0.000064 0
0.000233 0.000084 0
0.000293 0.000103 0
0.000354 0.000120 0
0.000416 0.000135 0
0.000480 0.000149 0
0.000545 0.000161 0
0.000612 0.000170 0
0.000681 0.000177 0
0.000751 0.000182 0
0.000823 0.000185 0
0.000897 0.000186 0
0.000972 0.000184 0
0.001048 0.000181 0
0.001126 0.000175 0
0.001204 0.000168 0
0.001284 0.000158 0
0.001363 0.000148 0
0.001443 0.000136 0
0.001522 0.000122 0
0.001600 0.000108 0
0.001677 0.000093 0
0.001752 0.000077 0
0.001823 0.000061 0
0.001891 0.000044 0
0.001955 0.000027 0
0.002012 0.000011 0
0.002063 -0.000006 0
0.002106 -0.000021 0
0.002139 -0.000036 0
0.002162 -0.000050 0
0.002173 -0.000062 0
0.002170 -0.000073 0
0.002152 -0.000082 0
0.002118 -0.000089 0
0.002066 -0.000094 0
0.001994 -0.000097 0
0.001903 -0.000097 0
0.001792 -0.000096 0
0.001659 -0.000091 0
0.001506 -0.000085 0
0.001334 -0.000076 0
0.001143 -0.000065 0
0.000936 -0.000053 0
0.000715 -0.000039 0
0.000483 -0.000024 0
0.000243 -0.000008 0
0.000000 0.000000 0
0.000000 0.000000 0
0.000070 0.000027 0
0.000141 0.000054 0
0.000212 0.000080 0
0.000284 0.000104 0
0.000357 0.000128 0
0.000431 0.000149 0
0.000507 0.000168 0
0.000585 0.000185 0
0.000665 0.000199 0
0.000746 0.000211 0
0.000830 0.000220 0
0.000916 0.000227 0
0.001004 0.000230 0
0.001094 0.000231 0
0.001186 0.000229 0
0.001279 0.000225 0
0.001375 0.000219 0
0.001471 0.000210 0
0.001568 0.000199 0
0.001666 0.000186 0
0.001764 0.000171 0
0.001862 0.000155 0
0.001958 0.000138 0
0.002053 0.000119 0
0.002145 0.000100 0
0.002234 0.000080 0
0.002319 0.000060 0
0.002398 0.000040 0
0.002470 0.000020 0
0.002534 0.000000 0
0.002589 -0.000019 0
0.002632 -0.000037 0
0.002663 -0.000054 0
0.002679 -0.000069 0
0.002678 -0.000082 0
0.002659 -0.000094 0
0.002619 -0.000103 0
0.002558 -0.000110 0
0.002472 -0.000113 0
0.002362 -0.000115 0
0.002226 -0.000113 0
0.002064 -0.000108 0
0.001876 -0.000100 0
0.001663 -0.000090 0
0.001426 -0.000078 0
0.001169 -0.000063 0
0.000893 -0.000046 0
0.000604 -0.000028 0
0.000304 -0.000009 0
0.000000 0.000000 0
0.000000 0.000000 0
0.000084 0.000033 0
0.000169 0.000066 0
0.000254 0.000098 0
0.000340 0.000128 0
0.000428 0.000156 0
0.000517 0.000183 0
0.000608 0.000206 0
0.000701 0.000227 0
0.000797 0.000245 0
0.000895 0.000259 0
0.000996 0.000270 0
0.001099 0.000278 0
0.001205 0.000283 0
0.001313 0.000284 0
0.001424 0.000282 0
0.001537 0.000277 0
0.001652 0.000269 0
0.001768 0.000259 0
0.001886 0.000246 0
0.002004 0.000230 0
0.002123 0.000213 0
0.002241 0.000194 0
0.002359 0.000173 0
0.002474 0.000151 0
0.002586 0.000129 0
0.002695 0.000105 0
0.002799 0.000081 0
0.002896 0.000057 0
0.002986 0.000033 0
0.003066 0.000009 0
0.003135 -0.000014 0
0.003190 -0.000035 0
0.003231 -0.000056 0
0.003253 -0.000074 0
0.003256 -0.000091 0
0.003237 -0.000105 0
0.003192 -0.000116 0
0.003121 -0.000125 0
0.003021 -0.000130 0
0.002891 -0.000132 0
0.002728 -0.000130 0
0.002533 -0.000125 0
0.002305 -0.000117 0
0.002045 -0.000105 0
0.001756 -0.000091 0
0.001440 -0.000073 0
0.001102 -0.000054 0
0.000745 -0.000033 0
0.000376 -0.000011 0
0.000000 0.000000 0
0.000000 0.000000 0
0.000100 0.000040 0
0.000200 0.000080 0
0.000300 0.000119 0
0.000403 0.000155 0
0.000506 0.000190 0
0.000612 0.000222 0
0.000720 0.000250 0
0.000831 0.000275 0
0.000944 0.000297 0
0.001061 0.000314 0
0.001181 0.000328 0
0.001303 0.000338 0
0.001429 0.000343 0
0.001558 0.000345 0
0.001690 0.000343 0
0.001825 0.000337 0
0.001962 0.000328 0
0.002101 0.000316 0
0.002241 0.000301 0
0.002383 0.000283 0
0.002525 0.000262 0
0.002667 0.000240 0
0.002808 0.000216 0
0.002947 0.000190 0
0.003082 0.000163 0
0.003214 0.000136 0
0.003340 0.000107 0
0.003458 0.000079 0
0.003568 0.000050 0
0.003667 0.000022 0
0.003753 -0.000005 0
0.003823 -0.000031 0
0.003876 -0.000055 0
0.003908 -0.000077 0
0.003916 -0.000097 0
0.003898 -0.000114 0
0.003850 -0.000128 0
0.003770 -0.000139 0
0.003654 -0.000146 0
0.003501 -0.000149 0
0.003309 -0.000148 0
0.003077 -0.000143 0
0.002804 -0.000134 0
0.002492 -0.000121 0
0.002142 -0.000104 0
0.001759 -0.000085 0
0.001346 -0.000062 0
0.000911 -0.000038 0
0.000460 -0.000013 0
0.000000 0.000000 0
0.000000 0.000000 0
0.000117 0.000049 0
0.000234 0.000097 0
0.000352 0.000143 0
0.000472 0.000187 0
0.000594 0.000229 0
0.000718 0.000267 0
0.000845 0.000301 0
0.000975 0.000332 0
0.001108 0.000357 0
0.001246 0.000379 0
0.001387 0.000395 0
0.001531 0.000407 0
0.001680 0.000414 0
0.001832 0.000416 0
0.001988 0.000414 0
0.002147 0.000407 0
0.002309 0.000397 0
0.002473 0.000383 0
0.002640 0.000365 0
0.002808 0.000344 0
0.002976 0.000321 0
0.003145 0.000295 0
0.003313 0.000266 0
0.003478 0.000237 0
0.003640 0.000205 0
0.003798 0.000173 0
0.003950 0.000140 0
0.004093 0.000107 0
0.004226 0.000073 0
0.004347 0.000041 0
0.004453 0.000009 0
0.004542 -0.000022 0
0.004610 -0.000050 0
0.004654 -0.000077 0
0.004670 -0.000101 0
0.004655 -0.000121 0
0.004605 -0.000139 0
0.004516 -0.000152 0
0.004385 -0.000161 0
0.004209 -0.000166 0
0.003984 -0.000166 0
0.003711 -0.000161 0
0.003387 -0.000151 0
0.003014 -0.000137 0
0.002595 -0.000119 0
0.002133 -0.000097 0
0.001634 -0.000071 0
0.001107 -0.000044 0
0.000559 -0.000015 0
0.000000 0.000000 0
0.000000 0.000000 0
0.000136 0.000058 0
0.000272 0.000116 0
0.000410 0.000171 0
0.000549 0.000225 0
0.000691 0.000274 0
0.000835 0.000320 0
0.000983 0.000361 0
0.001135 0.000397 0
0.001291 0.000428 0
0.001451 0.000453 0
0.001616 0.000473 0
0.001785 0.000487 0
0.001959 0.000495 0
0.002137 0.000498 0
0.002320 0.000496 0
0.002506 0.000489 0
0.002696 0.000477 0
0.002890 0.000461 0
0.003086 0.000440 0
0.003283 0.000416 0
0.003482 0.000389 0
0.003681 0.000359 0
0.003879 0.000327 0
0.004075 0.000292 0
0.004268 0.000256 0
0.004456 0.000219 0
0.004637 0.000180 0
0.004809 0.000142 0
0.004970 0.000103 0
0.005117 0.000065 0
0.005247 0.000028 0
0.005358 -0.000008 0
0.005444 -0.000041 0
0.005504 -0.000073 0
0.005531 -0.000101 0
0.005522 -0.000126 0
0.005471 -0.000147 0
0.005375 -0.000164 0
0.005229 -0.000175 0
0.005027 -0.000182 0
0.004768 -0.000183 0
0.004449 -0.000179 0
0.004068 -0.000169 0
0.003626 -0.000154 0
0.003126 -0.000134 0
0.002573 -0.000109 0
0.001974 -0.000081 0
0.001338 -0.000050 0
0.000676 -0.000017 0
0.000000 0.000000 0
0.000000 0.000000 0
0.000157 0.000070 0
0.000314 0.000138 0
0.000473 0.000205 0
0.000634 0.000268 0
0.000798 0.000327 0
0.000966 0.000382 0
0.001137 0.000431 0
0.001313 0.000474 0
0.001494 0.000510 0
0.001680 0.000540 0
0.001871 0.000564 0
0.002068 0.000580 0
0.002270 0.000591 0
0.002477 0.000594 0
0.002690 0.000592 0
0.002908 0.000584 0
0.003130 0.000570 0
0.003355 0.000551 0
0.003584 0.000528 0
0.003816 0.000500 0
0.004048 0.000469 0
0.004282 0.000435 0
0.004515 0.000398 0
0.004746 0.000358 0
0.004973 0.000317 0
0.005195 0.000274 0
0.005410 0.000230 0
0.005615 0.000185 0
0.005808 0.000141 0
0.005986 0.000097 0
0.006145 0.000054 0
0.006282 0.000012 0
0.006392 -0.000027 0
0.006470 -0.000064 0
0.006512 -0.000097 0
0.006512 -0.000127 0
0.006464 -0.000153 0
0.006363 -0.000173 0
0.006201 -0.000188 0
0.005975 -0.000198 0
0.005678 -0.000201 0
0.005309 -0.000197 0
0.004864 -0.000187 0
0.004344 -0.000171 0
0.003751 -0.000150 0
0.003092 -0.000122 0
0.002375 -0.000091 0
0.001611 -0.000056 0
0.000814 -0.000019 0
0.000000 0.000000 0
0.000000 0.000000 0
0.000180 0.000083 0
0.000361 0.000165 0
0.000543 0.000244 0
0.000728 0.000319 0
0.000917 0.000389 0
0.001109 0.000454 0
0.001307 0.000512 0
0.001510 0.000563 0
0.001718 0.000606 0
0.001933 0.000641 0
0.002154 0.000669 0
0.002381 0.000689 0
0.002615 0.000701 0
0.002856 0.000705 0
0.003102 0.000703 0
0.003355 0.000693 0
0.003612 0.000678 0
0.003874 0.000656 0
0.004140 0.000630 0
0.004410 0.000598 0
0.004681 0.000563 0
0.004953 0.000523 0
0.005225 0.000481 0
0.005496 0.000436 0
0.005762 0.000389 0
0.006024 0.000340 0
0.006277 0.000289 0
0.006521 0.000239 0
0.006751 0.000188 0
0.006965 0.000137 0
0.007158 0.000088 0
0.007326 0.000040 0
0.007464 -0.000006 0
0.007567 -0.000049 0
0.007629 -0.000089 0
0.007642 -0.000124 0
0.007600 -0.000155 0
0.007495 -0.000180 0
0.007320 -0.000199 0
0.007068 -0.000212 0
0.006732 -0.000217 0
0.006308 -0.000215 0
0.005792 -0.000206 0
0.005183 -0.000190 0
0.004485 -0.000166 0
0.003703 -0.000136 0
0.002848 -0.000102 0
0.001934 -0.000063 0
0.000978 -0.000021 0
0.000000 0.000000 0
0.000000 0.000000 0
0.000205 0.000098 0
0.000412 0.000195 0
0.000620 0.000289 0
0.000832 0.000378 0
0.001047 0.000461 0
0.001268 0.000537 0
0.001494 0.000606 0
0.001726 0.000666 0
0.001966 0.000717 0
0.002212 0.000758 0
0.002467 0.000791 0
0.002728 0.000814 0
0.002998 0.000828 0
0.003275 0.000833 0
0.003559 0.000831 0
0.003851 0.000820 0
0.004148 0.000802 0
0.004451 0.000778 0
0.004759 0.000748 0
0.005071 0.000712 0
0.005386 0.000671 0
0.005702 0.000627 0
0.006018 0.000579 0
0.006333 0.000527 0
0.006644 0.000473 0
0.006950 0.000418 0
0.007248 0.000361 0
0.007536 0.000303 0
0.007809 0.000245 0
0.008064 0.000187 0
0.008296 0.000130 0
0.008502 0.000075 0
0.008674 0.000022 0
0.008808 -0.000028 0
0.008894 -0.000074 0
0.008926 -0.000116 0
0.008894 -0.000153 0
0.008790 -0.000183 0
0.008605 -0.000207 0
0.008328 -0.000224 0
0.007951 -0.000233 0
0.007468 -0.000233 0
0.006874 -0.000225 0
0.006165 -0.000208 0
0.005346 -0.000183 0
0.004423 -0.000151 0
0.003407 -0.000113 0
0.002316 -0.000070 0
0.001172 -0.000024 0
0.000000 0.000000 0
0.000000 0.000000 0
0.000233 0.000117 0
0.000468 0.000231 0
0.000705 0.000342 0
0.000945 0.000447 0
0.001190 0.000545 0
0.001441 0.000635 0
0.001699 0.000715 0
0.001965 0.000786 0
0.002238 0.000845 0
0.002520 0.000894 0
0.002811 0.000932 0
0.003111 0.000959 0
0.003420 0.000975 0
0.003739 0.000981 0
0.004065 0.000978 0
0.004400 0.000966 0
0.004742 0.000946 0
0.005091 0.000918 0
0.005446 0.000884 0
0.005805 0.000843 0
0.006168 0.000797 0
0.006534 0.000746 0
0.006900 0.000692 0
0.007265 0.000634 0
0.007627 0.000573 0
0.007983 0.000510 0
0.008332 0.000446 0
0.008669 0.000380 0
0.008991 0.000314 0
0.009294 0.000249 0
0.009573 0.000184 0
0.009822 0.000121 0
0.010036 0.000060 0
0.010206 0.000002 0
0.010324 -0.000052 0
0.010380 -0.000101 0
0.010365 -0.000145 0
0.010267 -0.000182 0
0.010074 -0.000212 0
0.009775 -0.000234 0
0.009357 -0.000247 0
0.008812 -0.000250 0
0.008132 -0.000244 0
0.007313 -0.000227 0
0.006356 -0.000202 0
0.005269 -0.000167 0
0.004066 -0.000125 0
0.002768 -0.000078 0
0.001402 -0.000026 0
0.000000 0.000000 0
0.000000 0.000000 0
0.000264 0.000138 0
0.000528 0.000273 0
0.000796 0.000404 0
0.001068 0.000528 0
0.001346 0.000643 0
0.001631 0.000748 0
0.001924 0.000843 0
0.002225 0.000925 0
0.002536 0.000994 0
0.002858 0.001051 0
0.003189 0.001094 0
0.003532 0.001125 0
0.003885 0.001144 0
0.004249 0.001151 0
0.004623 0.001148 0
0.005006 0.001134 0
0.005398 0.001110 0
0.005798 0.001079 0
0.006205 0.001040 0
0.006618 0.000994 0
0.007036 0.000942 0
0.007456 0.000884 0
0.007878 0.000823 0
0.008299 0.000757 0
0.008718 0.000689 0
0.009131 0.000618 0
0.009536 0.000545 0
0.009930 0.000471 0
0.010308 0.000397 0
0.010666 0.000323 0
0.010999 0.000249 0
0.011300 0.000178 0
0.011562 0.000108 0
0.011776 0.000041 0
0.011933 -0.000021 0
0.012022 -0.000079 0
0.012031 -0.000131 0
0.011945 -0.000176 0
0.011750 -0.000213 0
0.011432 -0.000241 0
0.010974 -0.000259 0
0.010365 -0.000266 0
0.009592 -0.000262 0
0.008650 -0.000247 0
0.007539 -0.000221 0
0.006265 -0.000184 0
0.004844 -0.000139 0
0.003303 -0.000086 0
0.001674 -0.000029 0
0.000000 0.000000 0
0.000000 0.000000 0
0.000296 0.000162 0
0.000594 0.000322 0
0.000895 0.000476 0
0.001202 0.000622 0
0.001515 0.000757 0
0.001836 0.000880 0
0.002167 0.000990 0
0.002509 0.001086 0
0.002861 0.001166 0
0.003226 0.001232 0
0.003603 0.001282 0
0.003993 0.001317 0
0.004395 0.001338 0
0.004809 0.001346 0
0.005235 0.001342 0
0.005673 0.001325 0
0.006120 0.001299 0
0.006578 0.001263 0
0.007043 0.001218 0
0.007515 0.001166 0
0.007993 0.001107 0
0.008475 0.001043 0
0.008959 0.000973 0
0.009444 0.000900 0
0.009926 0.000823 0
0.010403 0.000743 0
0.010872 0.000662 0
0.011329 0.000579 0
0.011771 0.000495 0
0.012192 0.000412 0
0.012586 0.000329 0
0.012946 0.000247 0
0.013265 0.000168 0
0.013533 0.000091 0
0.013739 0.000019 0
0.013869 -0.000048 0
0.013910 -0.000109 0
0.013845 -0.000163 0
0.013655 -0.000209 0
0.013323 -0.000244 0
0.012829 -0.000269 0
0.012155 -0.000281 0
0.011284 -0.000281 0
0.010208 -0.000267 0
0.008923 -0.000241 0
0.007435 -0.000202 0
0.005762 -0.000153 0
0.003935 -0.000095 0
0.001997 -0.000032 0
0.000000 0.000000 0
0.000000 0.000000 0
0.000331 0.000191 0
0.000665 0.000379 0
0.001002 0.000560 0
0.001346 0.000731 0
0.001697 0.000890 0
0.002058 0.001034 0
0.002431 0.001162 0
0.002816 0.001272 0
0.003214 0.001365 0
0.003627 0.001440 0
0.004054 0.001497 0
0.004495 0.001537 0
0.004952 0.001561 0
0.005423 0.001569 0
0.005907 0.001563 0
0.006404 0.001544 0
0.006914 0.001513 0
0.007434 0.001472 0
0.007964 0.001421 0
0.008503 0.001362 0
0.009048 0.001296 0
0.009599 0.001223 0
0.010152 0.001145 0
0.010706 0.001063 0
0.011259 0.000977 0
0.011807 0.000888 0
0.012348 0.000797 0
0.012877 0.000704 0
0.013390 0.000610 0
0.013882 0.000517 0
0.014347 0.000423 0
0.014776 0.000331 0
0.015162 0.000241 0
0.015492 0.000154 0
0.015756 0.000071 0
0.015939 -0.000007 0
0.016022 -0.000079 0
0.015988 -0.000143 0
0.015814 -0.000198 0
0.015476 -0.000243 0
0.014950 -0.000276 0
0.014212 -0.000295 0
0.013240 -0.000299 0
0.012019 -0.000289 0
0.010540 -0.000263 0
0.008809 -0.000223 0
0.006844 -0.000169 0
0.004684 -0.000106 0
0.002380 -0.000036 0
0.000000 0.000000 0
0.000000 0.000000 0
0.000369 0.000225 0
0.000740 0.000446 0
0.001116 0.000659 0
0.001499 0.000859 0
0.001892 0.001045 0
0.002297 0.001212 0
0.002714 0.001361 0
0.003147 0.001488 0
0.003595 0.001595 0
0.004061 0.001680 0
0.004543 0.001745 0