# vtk DataFile Version 2.0
generated by CFD-lab course output (written by Tobias Neckel) 
ASCII

DATASET STRUCTURED_GRID
DIMENSIONS  51 51 1 
POINTS 2601 float

0.000000 0.000000 0
0.020000 0.000000 0
0.040000 0.000000 0
0.060000 0.000000 0
0.080000 0.000000 0
0.100000 0.000000 0
0.120000 0.000000 0
0.140000 0.000000 0
0.160000 0.000000 0
0.180000 0.000000 0
0.200000 0.000000 0
0.220000 0.000000 0
0.240000 0.000000 0
0.260000 0.000000 0
0.280000 0.000000 0
0.300000 0.000000 0
0.320000 0.000000 0
0.340000 0.000000 0
0.360000 0.000000 0
0.380000 0.000000 0
0.400000 0.000000 0
0.420000 0.000000 0
0.440000 0.000000 0
0.460000 0.000000 0
0.480000 0.000000 0
0.500000 0.000000 0
0.520000 0.000000 0
0.540000 0.000000 0
0.560000 0.000000 0
0.580000 0.000000 0
0.600000 0.000000 0
0.620000 0.000000 0
0.640000 0.000000 0
0.660000 0.000000 0
0.680000 0.000000 0
0.700000 0.000000 0
0.720000 0.000000 0
0.740000 0.000000 0
0.760000 0.000000 0
0.780000 0.000000 0
0.800000 0.000000 0
0.820000 0.000000 0
0.840000 0.000000 0
0.860000 0.000000 0
0.880000 0.000000 0
0.900000 0.000000 0
0.920000 0.000000 0
0.940000 0.000000 0
0.960000 0.000000 0
0.980000 0.000000 0
1.000000 0.000000 0
0.000000 0.020000 0
0.020000 0.020000 0
0.040000 0.020000 0
0.060000 0.020000 0
0.080000 0.020000 0
0.100000 0.020000 0
0.120000 0.020000 0
0.140000 0.020000 0
0.160000 0.020000 0
0.180000 0.020000 0
0.200000 0.020000 0
0.220000 0.020000 0
0.240000 0.020000 0
0.260000 0.020000 0
0.280000 0.020000 0
0.300000 0.020000 0
0.320000 0.020000 0
0.340000 0.020000 0
0.360000 0.020000 0
0.380000 0.020000 0
0.400000 0.020000 0
0.420000 0.020000 0
0.440000 0.020000 0
0.460000 0.020000 0
0.480000 0.020000 0
0.500000 0.020000 0
0.520000 0.020000 0
0.540000 0.020000 0
0.560000 0.020000 0
0.580000 0.020000 0
0.600000 0.020000 0
0.620000 0.020000 0
0.640000 0.020000 0
0.660000 0.020000 0
0.680000 0.020000 0
0.700000 0.020000 0
0.720000 0.020000 0
0.740000 0.020000 0
0.760000 0.020000 0
0.780000 0.020000 0
0.800000 0.020000 0
0.820000 0.020000 0
0.840000 0.020000 0
0.860000 0.020000 0
0.880000 0.020000 0
0.900000 0.020000 0
0.920000 0.020000 0
0.940000 0.020000 0
0.960000 0.020000 0
0.980000 0.020000 0
1.000000 0.020000 0
0.000000 0.040000 0
0.020000 0.040000 0
0.040000 0.040000 0
0.060000 0.040000 0
0.080000 0.040000 0
0.100000 0.040000 0
0.120000 0.040000 0
0.140000 0.040000 0
0.160000 0.040000 0
0.180000 0.040000 0
0.200000 0.040000 0
0.220000 0.040000 0
0.240000 0.040000 0
0.260000 0.040000 0
0.280000 0.040000 0
0.300000 0.040000 0
0.320000 0.040000 0
0.340000 0.040000 0
0.360000 0.040000 0
0.380000 0.040000 0
0.400000 0.040000 0
0.420000 0.040000 0
0.440000 0.040000 0
0.460000 0.040000 0
0.480000 0.040000 0
0.500000 0.040000 0
0.520000 0.040000 0
0.540000 0.040000 0
0.560000 0.040000 0
0.580000 0.040000 0
0.600000 0.040000 0
0.620000 0.040000 0
0.640000 0.040000 0
0.660000 0.040000 0
0.680000 0.040000 0
0.700000 0.040000 0
0.720000 0.040000 0
0.740000 0.040000 0
0.760000 0.040000 0
0.780000 0.040000 0
0.800000 0.040000 0
0.820000 0.040000 0
0.840000 0.040000 0
0.860000 0.040000 0
0.880000 0.040000 0
0.900000 0.040000 0
0.920000 0.040000 0
0.940000 0.040000 0
0.960000 0.040000 0
0.980000 0.040000 0
1.000000 0.040000 0
0.000000 0.060000 0
0.020000 0.060000 0
0.040000 0.060000 0
0.060000 0.060000 0
0.080000 0.060000 0
0.100000 0.060000 0
0.120000 0.060000 0
0.140000 0.060000 0
0.160000 0.060000 0
0.180000 0.060000 0
0.200000 0.060000 0
0.220000 0.060000 0
0.240000 0.060000 0
0.260000 0.060000 0
0.280000 0.060000 0
0.300000 0.060000 0
0.320000 0.060000 0
0.340000 0.060000 0
0.360000 0.060000 0
0.380000 0.060000 0
0.400000 0.060000 0
0.420000 0.060000 0
0.440000 0.060000 0
0.460000 0.060000 0
0.480000 0.060000 0
0.500000 0.060000 0
0.520000 0.060000 0
0.540000 0.060000 0
0.560000 0.060000 0
0.580000 0.060000 0
0.600000 0.060000 0
0.620000 0.060000 0
0.640000 0.060000 0
0.660000 0.060000 0
0.680000 0.060000 0
0.700000 0.060000 0
0.720000 0.060000 0
0.740000 0.060000 0
0.760000 0.060000 0
0.780000 0.060000 0
0.800000 0.060000 0
0.820000 0.060000 0
0.840000 0.060000 0
0.860000 0.060000 0
0.880000 0.060000 0
0.900000 0.060000 0
0.920000 0.060000 0
0.940000 0.060000 0
0.960000 0.060000 0
0.980000 0.060000 0
1.000000 0.060000 0
0.000000 0.080000 0
0.020000 0.080000 0
0.040000 0.080000 0
0.060000 0.080000 0
0.080000 0.080000 0
0.100000 0.080000 0
0.120000 0.080000 0
0.140000 0.080000 0
0.160000 0.080000 0
0.180000 0.080000 0
0.200000 0.080000 0
0.220000 0.080000 0
0.240000 0.080000 0
0.260000 0.080000 0
0.280000 0.080000 0
0.300000 0.080000 0
0.320000 0.080000 0
0.340000 0.080000 0
0.360000 0.080000 0
0.380000 0.080000 0
0.400000 0.080000 0
0.420000 0.080000 0
0.440000 0.080000 0
0.460000 0.080000 0
0.480000 0.080000 0
0.500000 0.080000 0
0.520000 0.080000 0
0.540000 0.080000 0
0.560000 0.080000 0
0.580000 0.080000 0
0.600000 0.080000 0
0.620000 0.080000 0
0.640000 0.080000 0
0.660000 0.080000 0
0.680000 0.080000 0
0.700000 0.080000 0
0.720000 0.080000 0
0.740000 0.080000 0
0.760000 0.080000 0
0.780000 0.080000 0
0.800000 0.080000 0
0.820000 0.080000 0
0.840000 0.080000 0
0.860000 0.080000 0
0.880000 0.080000 0
0.900000 0.080000 0
0.920000 0.080000 0
0.940000 0.080000 0
0.960000 0.080000 0
0.980000 0.080000 0
1.000000 0.080000 0
0.000000 0.100000 0
0.020000 0.100000 0
0.040000 0.100000 0
0.060000 0.100000 0
0.080000 0.100000 0
0.100000 0.100000 0
0.120000 0.100000 0
0.140000 0.100000 0
0.160000 0.100000 0
0.180000 0.100000 0
0.200000 0.100000 0
0.220000 0.100000 0
0.240000 0.100000 0
0.260000 0.100000 0
0.280000 0.100000 0
0.300000 0.100000 0
0.320000 0.100000 0
0.340000 0.100000 0
0.360000 0.100000 0
0.380000 0.100000 0
0.400000 0.100000 0
0.420000 0.100000 0
0.440000 0.100000 0
0.460000 0.100000 0
0.480000 0.100000 0
0.500000 0.100000 0
0.520000 0.100000 0
0.540000 0.100000 0
0.560000 0.100000 0
0.580000 0.100000 0
0.600000 0.100000 0
0.620000 0.100000 0
0.640000 0.100000 0
0.660000 0.100000 0
0.680000 0.100000 0
0.700000 0.100000 0
0.720000 0.100000 0
0.740000 0.100000 0
0.760000 0.100000 0
0.780000 0.100000 0
0.800000 0.100000 0
0.820000 0.100000 0
0.840000 0.100000 0
0.860000 0.100000 0
0.880000 0.100000 0
0.900000 0.100000 0
0.920000 0.100000 0
0.940000 0.100000 0
0.960000 0.100000 0
0.980000 0.100000 0
1.000000 0.100000 0
0.000000 0.120000 0
0.020000 0.120000 0
0.040000 0.120000 0
0.060000 0.120000 0
0.080000 0.120000 0
0.100000 0.120000 0
0.120000 0.120000 0
0.140000 0.120000 0
0.160000 0.120000 0
0.180000 0.120000 0
0.200000 0.120000 0
0.220000 0.120000 0
0.240000 0.120000 0
0.260000 0.120000 0
0.280000 0.120000 0
0.300000 0.120000 0
0.320000 0.120000 0
0.340000 0.120000 0
0.360000 0.120000 0
0.380000 0.120000 0
0.400000 0.120000 0
0.420000 0.120000 0
0.440000 0.120000 0
0.460000 0.120000 0
0.480000 0.120000 0
0.500000 0.120000 0
0.520000 0.120000 0
0.540000 0.120000 0
0.560000 0.120000 0
0.580000 0.120000 0
0.600000 0.120000 0
0.620000 0.120000 0
0.640000 0.120000 0
0.660000 0.120000 0
0.680000 0.120000 0
0.700000 0.120000 0
0.720000 0.120000 0
0.740000 0.120000 0
0.760000 0.120000 0
0.780000 0.120000 0
0.800000 0.120000 0
0.820000 0.120000 0
0.840000 0.120000 0
0.860000 0.120000 0
0.880000 0.120000 0
0.900000 0.120000 0
0.920000 0.120000 0
0.940000 0.120000 0
0.960000 0.120000 0
0.980000 0.120000 0
1.000000 0.120000 0
0.000000 0.140000 0
0.020000 0.140000 0
0.040000 0.140000 0
0.060000 0.140000 0
0.080000 0.140000 0
0.100000 0.140000 0
0.120000 0.140000 0
0.140000 0.140000 0
0.160000 0.140000 0
0.180000 0.140000 0
0.200000 0.140000 0
0.220000 0.140000 0
0.240000 0.140000 0
0.260000 0.140000 0
0.280000 0.140000 0
0.300000 0.140000 0
0.320000 0.140000 0
0.340000 0.140000 0
0.360000 0.140000 0
0.380000 0.140000 0
0.400000 0.140000 0
0.420000 0.140000 0
0.440000 0.140000 0
0.460000 0.140000 0
0.480000 0.140000 0
0.500000 0.140000 0
0.520000 0.140000 0
0.540000 0.140000 0
0.560000 0.140000 0
0.580000 0.140000 0
0.600000 0.140000 0
0.620000 0.140000 0
0.640000 0.140000 0
0.660000 0.140000 0
0.680000 0.140000 0
0.700000 0.140000 0
0.720000 0.140000 0
0.740000 0.140000 0
0.760000 0.140000 0
0.780000 0.140000 0
0.800000 0.140000 0
0.820000 0.140000 0
0.840000 0.140000 0
0.860000 0.140000 0
0.880000 0.140000 0
0.900000 0.140000 0
0.920000 0.140000 0
0.940000 0.140000 0
0.960000 0.140000 0
0.980000 0.140000 0
1.000000 0.140000 0
0.000000 0.160000 0
0.020000 0.160000 0
0.040000 0.160000 0
0.060000 0.160000 0
0.080000 0.160000 0
0.100000 0.160000 0
0.120000 0.160000 0
0.140000 0.160000 0
0.160000 0.160000 0
0.180000 0.160000 0
0.200000 0.160000 0
0.220000 0.160000 0
0.240000 0.160000 0
0.260000 0.160000 0
0.280000 0.160000 0
0.300000 0.160000 0
0.320000 0.160000 0
0.340000 0.160000 0
0.360000 0.160000 0
0.380000 0.160000 0
0.400000 0.160000 0
0.420000 0.160000 0
0.440000 0.160000 0
0.460000 0.160000 0
0.480000 0.160000 0
0.500000 0.160000 0
0.520000 0.160000 0
0.540000 0.160000 0
0.560000 0.160000 0
0.580000 0.160000 0
0.600000 0.160000 0
0.620000 0.160000 0
0.640000 0.160000 0
0.660000 0.160000 0
0.680000 0.160000 0
0.700000 0.160000 0
0.720000 0.160000 0
0.740000 0.160000 0
0.760000 0.160000 0
0.780000 0.160000 0
0.800000 0.160000 0
0.820000 0.160000 0
0.840000 0.160000 0
0.860000 0.160000 0
0.880000 0.160000 0
0.900000 0.160000 0
0.920000 0.160000 0
0.940000 0.160000 0
0.960000 0.160000 0
0.980000 0.160000 0
1.000000 0.160000 0
0.000000 0.180000 0
0.020000 0.180000 0
0.040000 0.180000 0
0.060000 0.180000 0
0.080000 0.180000 0
0.100000 0.180000 0
0.120000 0.180000 0
0.140000 0.180000 0
0.160000 0.180000 0
0.180000 0.180000 0
0.200000 0.180000 0
0.220000 0.180000 0
0.240000 0.180000 0
0.260000 0.180000 0
0.280000 0.180000 0
0.300000 0.180000 0
0.320000 0.180000 0
0.340000 0.180000 0
0.360000 0.180000 0
0.380000 0.180000 0
0.400000 0.180000 0
0.420000 0.180000 0
0.440000 0.180000 0
0.460000 0.180000 0
0.480000 0.180000 0
0.500000 0.180000 0
0.520000 0.180000 0
0.540000 0.180000 0
0.560000 0.180000 0
0.580000 0.180000 0
0.600000 0.180000 0
0.620000 0.180000 0
[...]
POINT_DATA 2601 

VECTORS velocity float
0.000000 0.000000 0
0.000000 0.000000 0
0.000000 0.000000 0
0.000000 0.000000 0
0.000000 0.000000 0
0.000000 0.000000 0
0.000000 0.000000 0
0.000000 0.000000 0
0.000000 0.000000 0
0.000000 0.000000 0
0.000000 0.000000 0
0.000000 0.000000 0
0.000000 0.000000 0
0.000000 0.000000 0
0.000000 0.000000 0
0.000000 0.000000 0
0.000000 0.000000 0
0.000000 0.000000 0
0.000000 0.000000 0
0.000000 0.000000 0
0.000000 0.000000 0
0.000000 0.000000 0
0.000000 0.000000 0
0.000000 0.000000 0
0.000000 0.000000 0
0.000000 0.000000 0
0.000000 0.000000 0
0.000000 0.000000 0
0.000000 0.000000 0
0.000000 0.000000 0
0.000000 0.000000 0
0.000000 0.000000 0
0.000000 0.000000 0
0.000000 0.000000 0
0.000000 0.000000 0
0.000000 0.000000 0
0.000000 0.000000 0
0.000000 0.000000 0
0.000000 0.000000 0
0.000000 0.000000 0
0.000000 0.000000 0
0.000000 0.000000 0
0.000000 0.000000 0
0.000000 0.000000 0
0.000000 0.000000 0
0.000000 0.000000 0
0.000000 0.000000 0
0.000000 0.000000 0
0.000000 0.000000 0
0.000000 0.000000 0
0.000000 0.000000 0
0.000000 0.000000 0
0.000029 0.000008 0
0.000058 0.000016 0
0.000087 0.000024 0
0.000117 0.000031 0
0.000146 0.000038 0
0.000176 0.000045 0
0.000205 0.000052 0
0.000235 0.000058 0
0.000265 0.000064 0
0.000295 0.000070 0
0.000325 0.000075 0
0.000355 0.000079 0
0.000386 0.000083 0
0.000416 0.000086 0
0.000447 0.000089 0
0.000478 0.000092 0
0.000508 0.000093 0
0.000538 0.000095 0
0.000569 0.000096 0
0.000598 0.000096 0
0.000628 0.000097 0
0.000656 0.000096 0
0.000684 0.000096 0
0.000711 0.000095 0
0.000736 0.000093 0
0.000760 0.000092 0
0.000782 0.000090 0
0.000802 0.000088 0
0.000819 0.000085 0
0.000834 0.000083 0
0.000845 0.000080 0
0.000853 0.000077 0
0.000856 0.000073 0
0.000855 0.000070 0
0.000848 0.000066 0
0.000836 0.000063 0
0.000818 0.000059 0
0.000794 0.000055 0
0.000762 0.000050 0
0.000724 0.000046 0
0.000679 0.000042 0
0.000626 0.000037 0
0.000566 0.000032 0
0.000500 0.000028 0
0.000427 0.000023 0
0.000349 0.000018 0
0.000266 0.000013 0
0.000180 0.000008 0
0.000090 0.000003 0
0.000000 0.000000 0
0.000000 0.000000 0
0.000058 0.000016 0
0.000117 0.000032 0
0.000175 0.000047 0
0.000234 0.000063 0
0.000293 0.000077 0
0.000352 0.000091 0
0.000411 0.000105 0
0.000470 0.000117 0
0.000530 0.000129 0
0.000590 0.000140 0
0.000651 0.000150 0
0.000712 0.000159 0
0.000773 0.000166 0
0.000834 0.000173 0
0.000895 0.000179 0
0.000957 0.000184 0
0.001018 0.000188 0
0.001079 0.000191 0
0.001139 0.000193 0
0.001199 0.000194 0
0.001257 0.000194 0
0.001315 0.000193 0
0.001371 0.000192 0
0.001424 0.000190 0
0.001475 0.000188 0
0.001523 0.000184 0
0.001568 0.000180 0
0.001608 0.000176 0
0.001643 0.000171 0
0.001673 0.000166 0
0.001696 0.000160 0
0.001711 0.000154 0
0.001719 0.000147 0
0.001716 0.000140 0
0.001704 0.000133 0
0.001680 0.000126 0
0.001645 0.000118 0
0.001596 0.000110 0
0.001534 0.000101 0
0.001457 0.000093 0
0.001366 0.000084 0
0.001260 0.000074 0
0.001141 0.000065 0
0.001007 0.000055 0
0.000861 0.000046 0
0.000704 0.000036 0
0.000537 0.000026 0
0.000362 0.000015 0
0.000182 0.000005 0
0.000000 0.000000 0
0.000000 0.000000 0
0.000088 0.000024 0
0.000175 0.000048 0
0.000263 0.000072 0
0.000351 0.000095 0
0.000440 0.000117 0
0.000528 0.000138 0
0.000617 0.000159 0
0.000707 0.000178 0
0.000797 0.000195 0
0.000887 0.000212 0
0.000978 0.000227 0
0.001070 0.000240 0
0.001162 0.000252 0
0.001254 0.000262 0
0.001346 0.000271 0
0.001438 0.000278 0
0.001531 0.000284 0
0.001622 0.000288 0
0.001714 0.000291 0
0.001804 0.000293 0
0.001892 0.000293 0
0.001979 0.000292 0
0.002063 0.000290 0
0.002144 0.000287 0
0.002222 0.000283 0
0.002295 0.000278 0
0.002362 0.000273 0
0.002424 0.000266 0
0.002477 0.000259 0
0.002523 0.000251 0
0.002558 0.000242 0
0.002583 0.000233 0
0.002594 0.000223 0
0.002592 0.000212 0
0.002575 0.000201 0
0.002540 0.000190 0
0.002487 0.000178 0
0.002415 0.000166 0
0.002322 0.000153 0
0.002207 0.000140 0
0.002070 0.000127 0
0.001911 0.000113 0
0.001730 0.000098 0
0.001529 0.000084 0
0.001307 0.000069 0
0.001069 0.000054 0
0.000815 0.000039 0
0.000550 0.000023 0
0.000277 0.000008 0
0.000000 0.000000 0
0.000000 0.000000 0
0.000117 0.000033 0
0.000234 0.000065 0
0.000352 0.000097 0
0.000470 0.000128 0
0.000588 0.000158 0
0.000706 0.000187 0
0.000825 0.000214 0
0.000945 0.000240 0
0.001066 0.000264 0
0.001187 0.000286 0
0.001308 0.000306 0
0.001431 0.000324 0
0.001554 0.000340 0
0.001677 0.000353 0
0.001801 0.000365 0
0.001925 0.000375 0
0.002049 0.000383 0
0.002172 0.000388 0
0.002294 0.000392 0
0.002415 0.000394 0
0.002535 0.000395 0
0.002651 0.000394 0
0.002765 0.000391 0
0.002874 0.000387 0
0.002979 0.000382 0
0.003078 0.000375 0
0.003170 0.000367 0
0.003253 0.000358 0
0.003327 0.000348 0
0.003389 0.000337 0
0.003438 0.000326 0
0.003473 0.000313 0
0.003490 0.000300 0
0.003490 0.000286 0
0.003468 0.000271 0
0.003424 0.000256 0
0.003355 0.000240 0
0.003259 0.000224 0
0.003136 0.000207 0
0.002983 0.000189 0
0.002800 0.000171 0
0.002586 0.000152 0
0.002343 0.000133 0
0.002071 0.000113 0
0.001772 0.000093 0
0.001450 0.000073 0
0.001106 0.000052 0
0.000747 0.000031 0
0.000376 0.000011 0
0.000000 0.000000 0
0.000000 0.000000 0
0.000147 0.000042 0
0.000294 0.000083 0
0.000441 0.000123 0
0.000589 0.000163 0
0.000737 0.000201 0
0.000886 0.000237 0
0.001035 0.000272 0
0.001186 0.000305 0
0.001337 0.000335 0
0.001489 0.000363 0
0.001642 0.000388 0
0.001796 0.000411 0
0.001951 0.000431 0
0.002106 0.000448 0
0.002262 0.000463 0
0.002418 0.000475 0
0.002574 0.000485 0
0.002729 0.000492 0
0.002884 0.000497 0
0.003036 0.000500 0
0.003187 0.000500 0
0.003335 0.000498 0
0.003479 0.000495 0
0.003618 0.000490 0
0.003751 0.000483 0
0.003877 0.000475 0
0.003994 0.000465 0
0.004101 0.000453 0
0.004196 0.000441 0
0.004277 0.000427 0
0.004341 0.000413 0
0.004388 0.000397 0
0.004413 0.000380 0
0.004415 0.000362 0
0.004391 0.000344 0
0.004339 0.000325 0
0.004255 0.000305 0
0.004137 0.000284 0
0.003984 0.000262 0
0.003793 0.000240 0
0.003563 0.000217 0
0.003295 0.000193 0
0.002987 0.000169 0
0.002643 0.000144 0
0.002263 0.000119 0
0.001852 0.000093 0
0.001414 0.000067 0
0.000955 0.000040 0
0.000481 0.000013 0
0.000000 0.000000 0
0.000000 0.000000 0
0.000177 0.000051 0
0.000354 0.000101 0
0.000532 0.000151 0
0.000710 0.000199 0
0.000888 0.000246 0
0.001068 0.000291 0
0.001248 0.000333 0
0.001429 0.000373 0
0.001612 0.000410 0
0.001796 0.000443 0
0.001980 0.000474 0
0.002166 0.000502 0
0.002353 0.000526 0
0.002541 0.000547 0
0.002730 0.000565 0
0.002919 0.000580 0
0.003108 0.000592 0
0.003296 0.000600 0
0.003483 0.000606 0
0.003669 0.000609 0
0.003853 0.000610 0
0.004032 0.000608 0
0.004208 0.000603 0
0.004378 0.000597 0
0.004541 0.000588 0
0.004696 0.000578 0
0.004840 0.000566 0
0.004972 0.000552 0
0.005090 0.000537 0
0.005192 0.000521 0
0.005274 0.000503 0
0.005334 0.000484 0
0.005370 0.000463 0
0.005377 0.000442 0
0.005352 0.000419 0
0.005293 0.000396 0
0.005196 0.000372 0
0.005058 0.000346 0
0.004875 0.000320 0
0.004647 0.000293 0
0.004370 0.000265 0
0.004045 0.000236 0
0.003671 0.000206 0
0.003250 0.000176 0
0.002786 0.000145 0
0.002281 0.000114 0
0.001743 0.000081 0
0.001178 0.000049 0
0.000594 0.000016 0
0.000000 0.000000 0
0.000000 0.000000 0
0.000208 0.000061 0
0.000415 0.000121 0
0.000623 0.000181 0
0.000832 0.000238 0
0.001042 0.000294 0
0.001252 0.000347 0
0.001464 0.000398 0
0.001677 0.000445 0
0.001891 0.000489 0
0.002107 0.000529 0
0.002324 0.000566 0
0.002543 0.000598 0
0.002763 0.000627 0
0.002984 0.000652 0
0.003207 0.000673 0
0.003429 0.000690 0
0.003652 0.000704 0
0.003875 0.000714 0
0.004097 0.000721 0
0.004317 0.000724 0
0.004534 0.000724 0
0.004747 0.000722 0
0.004956 0.000717 0
0.005159 0.000709 0
0.005353 0.000699 0
0.005539 0.000686 0
0.005712 0.000672 0
0.005872 0.000656 0
0.006015 0.000638 0
0.006140 0.000618 0
0.006242 0.000597 0
0.006319 0.000574 0
0.006366 0.000550 0
0.006381 0.000525 0
0.006359 0.000499 0
0.006295 0.000471 0
0.006187 0.000442 0
0.006029 0.000412 0
0.005819 0.000381 0
0.005553 0.000349 0
0.005229 0.000316 0
0.004846 0.000281 0
0.004403 0.000246 0
0.003903 0.000210 0
0.003348 0.000173 0
0.002744 0.000136 0
0.002098 0.000097 0
0.001418 0.000059 0
0.000715 0.000020 0
0.000000 0.000000 0
0.000000 0.000000 0
0.000239 0.000072 0
0.000477 0.000143 0
0.000717 0.000212 0
0.000957 0.000280 0
0.001197 0.000345 0
0.001440 0.000408 0
0.001683 0.000467 0
0.001928 0.000522 0
0.002175 0.000573 0
0.002424 0.000620 0
0.002675 0.000663 0
0.002927 0.000701 0
0.003181 0.000734 0
0.003437 0.000763 0
0.003694 0.000787 0
0.003952 0.000807 0
0.004210 0.000823 0
0.004468 0.000834 0
0.004725 0.000841 0
0.004981 0.000845 0
0.005234 0.000845 0
0.005483 0.000842 0
0.005726 0.000836 0
0.005963 0.000827 0
0.006192 0.000815 0
0.006410 0.000800 0
0.006615 0.000784 0
0.006805 0.000765 0
0.006976 0.000744 0
0.007127 0.000721 0
0.007252 0.000696 0
0.007348 0.000670 0
0.007411 0.000642 0
0.007436 0.000613 0
0.007419 0.000582 0
0.007354 0.000550 0
0.007237 0.000516 0
0.007062 0.000481 0
0.006825 0.000445 0
0.006522 0.000408 0
0.006150 0.000369 0
0.005707 0.000329 0
0.005193 0.000288 0
0.004609 0.000246 0
0.003958 0.000203 0
0.003248 0.000159 0
0.002485 0.000114 0
0.001681 0.000069 0
0.000848 0.000023 0
0.000000 0.000000 0
0.000000 0.000000 0
0.000270 0.000083 0
0.000540 0.000166 0
0.000811 0.000246 0
0.001083 0.000325 0
0.001356 0.000401 0
0.001631 0.000473 0
0.001907 0.000541 0
0.002185 0.000605 0
0.002465 0.000664 0
0.002748 0.000718 0
0.003033 0.000767 0
0.003320 0.000811 0
0.003609 0.000849 0
0.003900 0.000882 0
0.004193 0.000909 0
0.004488 0.000931 0
0.004783 0.000949 0
0.005078 0.000962 0
0.005372 0.000970 0
0.005665 0.000974 0
0.005955 0.000974 0
0.006242 0.000970 0
0.006523 0.000962 0
0.006796 0.000951 0
0.007061 0.000937 0
0.007314 0.000921 0
0.007554 0.000901 0
0.007776 0.000879 0
0.007979 0.000855 0
0.008158 0.000829 0
0.008309 0.000801 0
0.008428 0.000771 0
0.008510 0.000739 0
0.008549 0.000705 0
0.008540 0.000670 0
0.008477 0.000633 0
0.008354 0.000594 0
0.008165 0.000555 0
0.007903 0.000513 0
0.007565 0.000470 0
0.007145 0.000426 0
0.006640 0.000380 0
0.006051 0.000333 0
0.005378 0.000284 0
0.004625 0.000235 0
0.003799 0.000184 0
0.002910 0.000132 0
0.001970 0.000080 0
0.000994 0.000027 0
0.000000 0.000000 0
0.000000 0.000000 0
0.000302 0.000096 0
0.000605 0.000191 0
0.000908 0.000284 0
0.001212 0.000374 0
0.001518 0.000461 0
0.001826 0.000544 0
0.002135 0.000622 0
0.002447 0.000695 0
0.002762 0.000763 0
0.003079 0.000824 0
0.003400 0.000880 0
0.003723 0.000929 0
0.004048 0.000972 0
0.004376 0.001009 0
0.004707 0.001040 0
0.005039 0.001065 0
0.005372 0.001084 0
0.005706 0.001098 0
0.006040 0.001107 0
0.006372 0.001111 0
0.006702 0.001110 0
0.007028 0.001105 0
0.007348 0.001096 0
0.007661 0.001084 0
0.007965 0.001067 0
0.008256 0.001048 0
0.008533 0.001026 0
0.008791 0.001001 0
0.009028 0.000973 0
0.009240 0.000944 0
0.009421 0.000911 0
0.009566 0.000877 0
0.009671 0.000841 0
0.009728 0.000803 0
0.009732 0.000763 0
0.009675 0.000721 0
0.009549 0.000678 0
0.009348 0.000632 0
0.009064 0.000585 0
0.008691 0.000537 0
0.008223 0.000486 0
0.007656 0.000434 0
0.006989 0.000380 0
0.006221 0.000325 0
0.005358 0.000268 0
0.004407 0.000210 0
0.003379 0.000151 0
0.002289 0.000091 0
0.001156 0.000030 0
0.000000 0.000000 0
0.000000 0.000000 0
0.000335 0.000110 0
0.000671 0.000218 0
0.001007 0.000325 0
0.001344 0.000428 0
0.001684 0.000527 0
0.002025 0.000622 0
0.002369 0.000711 0
0.002716 0.000793 0
0.003066 0.000870 0
0.003419 0.000939 0
0.003776 0.001002 0
0.004136 0.001057 0
0.004500 0.001105 0
0.004867 0.001146 0
0.005236 0.001181 0
0.005608 0.001208 0
0.005982 0.001229 0
0.006356 0.001244 0
0.006731 0.001253 0
0.007105 0.001257 0
0.007477 0.001256 0
0.007844 0.001250 0
0.008207 0.001239 0
0.008562 0.001224 0
0.008907 0.001206 0
0.009240 0.001184 0
0.009557 0.001158 0
0.009855 0.001130 0
0.010130 0.001099 0
0.010378 0.001065 0
0.010593 0.001029 0
0.010770 0.000990 0
0.010902 0.000949 0
0.010982 0.000907 0
0.011002 0.000862 0
0.010955 0.000815 0
0.010832 0.000766 0
0.010623 0.000715 0
0.010320 0.000662 0
0.009914 0.000607 0
0.009398 0.000550 0
0.008768 0.000492 0
0.008019 0.000431 0
0.007151 0.000368 0
0.006169 0.000304 0
0.005081 0.000239 0
0.003901 0.000171 0
0.002645 0.000103 0
0.001336 0.000035 0
0.000000 0.000000 0
0.000000 0.000000 0
0.000369 0.000125 0
0.000738 0.000249 0
0.001108 0.000370 0
0.001479 0.000487 0
0.001853 0.000600 0
0.002229 0.000707 0
0.002609 0.000807 0
0.002992 0.000901 0
0.003378 0.000987 0
0.003769 0.001065 0
0.004163 0.001135 0
0.004562 0.001196 0
0.004965 0.001250 0
0.005372 0.001295 0
0.005783 0.001333 0
0.006196 0.001363 0
0.006612 0.001386 0
0.007030 0.001401 0
0.007449 0.001411 0
0.007866 0.001414 0
0.008283 0.001412 0
0.008695 0.001404 0
0.009103 0.001391 0
0.009503 0.001374 0
0.009893 0.001353 0
0.010270 0.001328 0
0.010632 0.001299 0
0.010973 0.001267 0
0.011291 0.001232 0
0.011579 0.001194 0
0.011833 0.001153 0
0.012046 0.001110 0
0.012210 0.001065 0
0.012318 0.001017 0
0.012361 0.000966 0
0.012329 0.000914 0
0.012213 0.000859 0
0.012000 0.000802 0
0.011682 0.000743 0
0.011246 0.000682 0
0.010684 0.000619 0
0.009988 0.000553 0
0.009154 0.000485 0
0.008180 0.000415 0
0.007070 0.000343 0
0.005833 0.000269 0
0.004484 0.000193 0
0.003044 0.000117 0
0.001539 0.000039 0
0.000000 0.000000 0
0.000000 0.000000 0
0.000403 0.000142 0
0.000806 0.000282 0
0.001211 0.000420 0
0.001618 0.000553 0
0.002027 0.000680 0
0.002439 0.000801 0
0.002855 0.000914 0
0.003275 0.001019 0
0.003699 0.001116 0
0.004128 0.001203 0
0.004563 0.001280 0
0.005002 0.001349 0
0.005446 0.001408 0
0.005896 0.001457 0
0.006349 0.001498 0
0.006807 0.001530 0
0.007268 0.001555 0
0.007731 0.001571 0
0.008195 0.001580 0
0.008660 0.001583 0
0.009124 0.001579 0
0.009584 0.001570 0
0.010040 0.001555 0
0.010489 0.001535 0
0.010927 0.001510 0
0.011353 0.001482 0
0.011763 0.001449 0
0.012152 0.001413 0
0.012517 0.001374 0
0.012851 0.001331 0
0.013148 0.001286 0
0.013402 0.001238 0
0.013604 0.001187 0
0.013746 0.001134 0
0.013817 0.001078 0
0.013807 0.001020 0
0.013703 0.000959 0
0.013493 0.000896 0
0.013163 0.000830 0
0.012701 0.000762 0
0.012095 0.000691 0
0.011334 0.000618 0
0.010411 0.000542 0
0.009324 0.000464 0
0.008075 0.000383 0
0.006674 0.000301 0
0.005139 0.000216 0
0.003492 0.000131 0
0.001767 0.000044 0
0.000000 0.000000 0
0.000000 0.000000 0
0.000438 0.000161 0
0.000877 0.000320 0
0.001317 0.000475 0
0.001759 0.000626 0
0.002205 0.000770 0
0.002654 0.000906 0
0.003107 0.001033 0
0.003566 0.001150 0
0.004030 0.001258 0
0.004499 0.001354 0
0.004975 0.001440 0
0.005457 0.001515 0
0.005945 0.001580 0
0.006438 0.001634 0
0.006937 0.001678 0
0.007441 0.001712 0
0.007950 0.001738 0
0.008461 0.001755 0
0.008975 0.001763 0
0.009490 0.001765 0
0.010004 0.001759 0
0.010516 0.001747 0
0.011024 0.001730 0
0.011524 0.001707 0
0.012016 0.001679 0
0.012494 0.001646 0
0.012957 0.001610 0
0.013398 0.001569 0
0.013814 0.001525 0
0.014199 0.001478 0
0.014545 0.001427 0
0.014846 0.001374 0
0.015093 0.001317 0
0.015275 0.001258 0
0.015381 0.001196 0
0.015399 0.001132 0
0.015315 0.001064 0
0.015113 0.000994 0
0.014778 0.000922 0
0.014295 0.000846 0
0.013646 0.000768 0
0.012821 0.000687 0
0.011807 0.000603 0
0.010600 0.000516 0
0.009201 0.000427 0
0.007621 0.000335 0
0.005877 0.000241 0
0.003999 0.000145 0
0.002025 0.000049 0
0.000000 0.000000 0
0.000000 0.000000 0
0.000474 0.000182 0
0.000949 0.000362 0
0.001425 0.000538 0
0.001905 0.000708 0
0.002387 0.000870 0
0.002875 0.001022 0
0.003367 0.001165 0
0.003866 0.001296 0
0.004371 0.001415 0
0.004882 0.001522 0
0.005402 0.001617 0
0.005928 0.001699 0
0.006462 0.001769 0
0.007002 0.001827 0
0.007550 0.001874 0
0.008103 0.001911 0
0.008662 0.001937 0
0.009225 0.001953 0
0.009791 0.001961 0
0.010359 0.001961 0
0.010928 0.001953 0
0.011495 0.001939 0
0.012058 0.001918 0
0.012615 0.001891 0
0.013164 0.001859 0
0.013699 0.001822 0
0.014219 0.001781 0
0.014718 0.001735 0
0.015191 0.001686 0
0.015632 0.001633 0
0.016034 0.001577 0
0.016388 0.001518 0
0.016686 0.001456 0
0.016915 0.001390 0
0.017064 0.001322 0
0.017118 0.001250 0
0.017061 0.001176 0
0.016875 0.001099 0
0.016543 0.001019 0
0.016043 0.000935 0
0.015357 0.000849 0
0.014468 0.000759 0
0.013361 0.000667 0
0.012028 0.000571 0
0.010467 0.000472 0
0.008689 0.000371 0
0.006714 0.000267 0
0.004576 0.000161 0
0.002319 0.000054 0
0.000000 0.000000 0
0.000000 0.000000 0
0.000511 0.000206 0
0.001023 0.000410 0
0.001536 0.000608 0
0.002053 0.000800 0
0.002575 0.000982 0
0.003101 0.001153 0
0.003634 0.001312 0
0.004175 0.001458 0
0.004723 0.001590 0
0.005279 0.001708 0
0.005843 0.001812 0
0.006417 0.001901 0
0.006999 0.001977 0
0.007590 0.002039 0
0.008188 0.002089 0
0.008794 0.002127 0
0.009407 0.002153 0
0.010025 0.002169 0
0.010648 0.002176 0
0.011273 0.002173 0
0.011900 0.002162 0
0.012526 0.002144 0
0.013150 0.002119 0
0.013768 0.002088 0
0.014377 0.002052 0
0.014975 0.002010 0
0.015557 0.001964 0
0.016119 0.001913 0
0.016655 0.001858 0
0.017158 0.001799 0
0.017622 0.001737 0
0.018036 0.001671 0
0.018392 0.001603 0
0.018677 0.001530 0
0.018877 0.001455 0
0.018976 0.001376 0
0.018955 0.001295 0
0.018794 0.001209 0
0.018472 0.001121 0
0.017964 0.001029 0
0.017246 0.000934 0
0.016296 0.000836 0
0.015095 0.000734 0
0.013629 0.000629 0
0.011895 0.000520 0
0.009899 0.000408 0
0.007666 0.000294 0
0.005233 0.000178 0
0.002655 0.000059 0
0.000000 0.000000 0
0.000000 0.000000 0
0.000548 0.000233 0
0.001098 0.000464 0
0.001650 0.000688 0
0.002206 0.000904 0
0.002767 0.001108 0
0.003334 0.001300 0
0.003910 0.001478 0
0.004493 0.001640 0
0.005086 0.001786 0
0.005689 0.001915 0
0.006302 0.002028 0
0.006925 0.002125 0
0.007559 0.002207 0
0.008203 0.002273 0
0.008856 0.002325 0
0.009519 0.002363 0
0.010189 0.002389 0
0.010866 0.002404 0
0.011549 0.002408 0
0.012237 0.002402 0
0.012926 0.002388 0
0.013616 0.002366 0
0.014305 0.002336 0
0.014988 0.002300 0
0.015665 0.002258 0
0.016330 0.002211 0
0.016980 0.002159 0
0.017610 0.002102 0
0.018215 0.002041 0
0.018787 0.001976 0
0.019319 0.001907 0
0.019802 0.001835 0
0.020224 0.001758 0
0.020573 0.001679 0
0.020833 0.001596 0
0.020986 0.001509 0
0.021011 0.001419 0
0.020886 0.001326 0
0.020584 0.001229 0
0.020077 0.001128 0
0.019335 0.001024 0
0.018329 0.000916 0
0.017034 0.000804 0
0.015430 0.000688 0
0.013508 0.000570 0
0.011274 0.000447 0
0.008752 0.000322 0
0.005986 0.000195 0
0.003041 0.000065 0
0.000000 0.000000 0
0.000000 0.000000 0
0.000587 0.000264 0
0.001175 0.000525 0
0.001766 0.000779 0
0.002361 0.001022 0
0.002964 0.001252 0
0.003574 0.001467 0
0.004193 0.001664 0
0.004822 0.001844 0
0.005462 0.002005 0
0.006114 0.002147 0
0.006778 0.002270 0
0.007455 0.002374 0
0.008144 0.002460 0
0.008845 0.002530 0
0.009557 0.002583 0
0.010280 0.002622 0
0.011012 0.002647 0
0.011753 0.002659 0
0.012501 0.002660 0
0.013255 0.002651 0
0.014013 0.002632 0
0.014772 0.002604 0
0.015530 0.002569 0
0.016285 0.002528 0
0.017034 0.002480 0
0.017772 0.002426 0
0.018496 0.002367 0
0.019201 0.002304 0
0.019881 0.002236 0
0.020529 0.002164 0
0.021137 0.002088 0
0.021696 0.002008 0
0.022193 0.001924 0
0.022615 0.001836 0
0.022944 0.001745 0
0.023163 0.001650 0
0.023246 0.001551 0
0.023169 0.001448 0
0.022899 0.001342 0
0.022404 0.001231 0
0.021648 0.001117 0
0.020593 0.000998 0
0.019206 0.000876 0
0.017460 0.000750 0
0.015338 0.000620 0
0.012841 0.000487 0
0.009996 0.000351 0
0.006851 0.000212 0
0.003486 0.000071 0
0.000000 0.000000 0
0.000000 0.000000 0
0.000625 0.000300 0
0.001253 0.000595 0
0.001884 0.000882 0
0.002520 0.001157 0
0.003165 0.001415 0
0.003819 0.001656 0
0.004484 0.001876 0
0.005161 0.002075 0
0.005851 0.002252 0
0.006555 0.002406 0
0.007274 0.002539 0
0.008008 0.002650 0
0.008756 0.002741 0
0.009518 0.002813 0
0.010294 0.002868 0
0.011082 0.002905 0
0.011881 0.002928 0
0.012691 0.002937 0
0.013510 0.002934 0
0.014336 0.002919 0
0.015166 0.002895 0
0.016000 0.002862 0
0.016835 0.002820 0
0.017667 0.002772 0
0.018494 0.002717 0
0.019311 0.002656 0
0.020116 0.002590 0