# vtk DataFile Version 2.0
generated by CFD-lab course output (written by Tobias Neckel) 
ASCII

DATASET STRUCTURED_GRID
DIMENSIONS  51 51 1 
POINTS 2601 float

0.000000 0.000000 0
0.020000 0.000000 0
0.040000 0.000000 0
0.060000 0.000000 0
0.080000 0.000000 0
0.100000 0.000000 0
0.120000 0.000000 0
0.140000 0.000000 0
0.160000 0.000000 0
0.180000 0.000000 0
0.200000 0.000000 0
0.220000 0.000000 0
0.240000 0.000000 0
0.260000 0.000000 0
0.280000 0.000000 0
0.300000 0.000000 0
0.320000 0.000000 0
0.340000 0.000000 0
0.360000 0.000000 0
0.380000 0.000000 0
0.400000 0.000000 0
0.420000 0.000000 0
0.440000 0.000000 0
0.460000 0.000000 0
0.480000 0.000000 0
0.500000 0.000000 0
0.520000 0.000000 0
0.540000 0.000000 0
0.560000 0.000000 0
0.580000 0.000000 0
0.600000 0.000000 0
0.620000 0.000000 0
0.640000 0.000000 0
0.660000 0.000000 0
0.680000 0.000000 0
0.700000 0.000000 0
0.720000 0.000000 0
0.740000 0.000000 0
0.760000 0.000000 0
0.780000 0.000000 0
0.800000 0.000000 0
0.820000 0.000000 0
0.840000 0.000000 0
0.860000 0.000000 0
0.880000 0.000000 0
0.900000 0.000000 0
0.920000 0.000000 0
0.940000 0.000000 0
0.960000 0.000000 0
0.980000 0.000000 0
1.000000 0.000000 0
0.000000 0.020000 0
0.020000 0.020000 0
0.040000 0.020000 0
0.060000 0.020000 0
0.080000 0.020000 0
0.100000 0.020000 0
0.120000 0.020000 0
0.140000 0.020000 0
0.160000 0.020000 0
0.180000 0.020000 0
0.200000 0.020000 0
0.220000 0.020000 0
0.240000 0.020000 0
0.260000 0.020000 0
0.280000 0.020000 0
0.300000 0.020000 0
0.320000 0.020000 0
0.340000 0.020000 0
0.360000 0.020000 0
0.380000 0.020000 0
0.400000 0.020000 0
0.420000 0.020000 0
0.440000 0.020000 0
0.460000 0.020000 0
0.480000 0.020000 0
0.500000 0.020000 0
0.520000 0.020000 0
0.540000 0.020000 0
0.560000 0.020000 0
0.580000 0.020000 0
0.600000 0.020000 0
0.620000 0.020000 0
0.640000 0.020000 0
0.660000 0.020000 0
0.680000 0.020000 0
0.700000 0.020000 0
0.720000 0.020000 0
0.740000 0.020000 0
0.760000 0.020000 0
0.780000 0.020000 0
0.800000 0.020000 0
0.820000 0.020000 0
0.840000 0.020000 0
0.860000 0.020000 0
0.880000 0.020000 0
0.900000 0.020000 0
0.920000 0.020000 0
0.940000 0.020000 0
0.960000 0.020000 0
0.980000 0.020000 0
1.000000 0.020000 0
0.000000 0.040000 0
0.020000 0.040000 0
0.040000 0.040000 0
0.060000 0.040000 0
0.080000 0.040000 0
0.100000 0.040000 0
0.120000 0.040000 0
0.140000 0.040000 0
0.160000 0.040000 0
0.180000 0.040000 0
0.200000 0.040000 0
0.220000 0.040000 0
0.240000 0.040000 0
0.260000 0.040000 0
0.280000 0.040000 0
0.300000 0.040000 0
0.320000 0.040000 0
0.340000 0.040000 0
0.360000 0.040000 0
0.380000 0.040000 0
0.400000 0.040000 0
0.420000 0.040000 0
0.440000 0.040000 0
0.460000 0.040000 0
0.480000 0.040000 0
0.500000 0.040000 0
0.520000 0.040000 0
0.540000 0.040000 0
0.560000 0.040000 0
0.580000 0.040000 0
0.600000 0.040000 0
0.620000 0.040000 0
0.640000 0.040000 0
0.660000 0.040000 0
0.680000 0.040000 0
0.700000 0.040000 0
0.720000 0.040000 0
0.740000 0.040000 0
0.760000 0.040000 0
0.780000 0.040000 0
0.800000 0.040000 0
0.820000 0.040000 0
0.840000 0.040000 0
0.860000 0.040000 0
0.880000 0.040000 0
0.900000 0.040000 0
0.920000 0.040000 0
0.940000 0.040000 0
0.960000 0.040000 0
0.980000 0.040000 0
1.000000 0.040000 0
0.000000 0.060000 0
0.020000 0.060000 0
0.040000 0.060000 0
0.060000 0.060000 0
0.080000 0.060000 0
0.100000 0.060000 0
0.120000 0.060000 0
0.140000 0.060000 0
0.160000 0.060000 0
0.180000 0.060000 0
0.200000 0.060000 0
0.220000 0.060000 0
0.240000 0.060000 0
0.260000 0.060000 0
0.280000 0.060000 0
0.300000 0.060000 0
0.320000 0.060000 0
0.340000 0.060000 0
0.360000 0.060000 0
0.380000 0.060000 0
0.400000 0.060000 0
0.420000 0.060000 0
0.440000 0.060000 0
0.460000 0.060000 0
0.480000 0.060000 0
0.500000 0.060000 0
0.520000 0.060000 0
0.540000 0.060000 0
0.560000 0.060000 0
0.580000 0.060000 0
0.600000 0.060000 0
0.620000 0.060000 0
0.640000 0.060000 0
0.660000 0.060000 0
0.680000 0.060000 0
0.700000 0.060000 0
0.720000 0.060000 0
0.740000 0.060000 0
0.760000 0.060000 0
0.780000 0.060000 0
0.800000 0.060000 0
0.820000 0.060000 0
0.840000 0.060000 0
0.860000 0.060000 0
0.880000 0.060000 0
0.900000 0.060000 0
0.920000 0.060000 0
0.940000 0.060000 0
0.960000 0.060000 0
0.980000 0.060000 0
1.000000 0.060000 0
0.000000 0.080000 0
0.020000 0.080000 0
0.040000 0.080000 0
0.060000 0.080000 0
0.080000 0.080000 0
0.100000 0.080000 0
0.120000 0.080000 0
0.140000 0.080000 0
0.160000 0.080000 0
0.180000 0.080000 0
0.200000 0.080000 0
0.220000 0.080000 0
0.240000 0.080000 0
0.260000 0.080000 0
0.280000 0.080000 0
0.300000 0.080000 0
0.320000 0.080000 0
0.340000 0.080000 0
0.360000 0.080000 0
0.380000 0.080000 0
0.400000 0.080000 0
0.420000 0.080000 0
0.440000 0.080000 0
0.460000 0.080000 0
0.480000 0.080000 0
0.500000 0.080000 0
0.520000 0.080000 0
0.540000 0.080000 0
0.560000 0.080000 0
0.580000 0.080000 0
0.600000 0.080000 0
0.620000 0.080000 0
0.640000 0.080000 0
0.660000 0.080000 0
0.680000 0.080000 0
0.700000 0.080000 0
0.720000 0.080000 0
0.740000 0.080000 0
0.760000 0.080000 0
0.780000 0.080000 0
0.800000 0.080000 0
0.820000 0.080000 0
0.840000 0.080000 0
0.860000 0.080000 0
0.880000 0.080000 0
0.900000 0.080000 0
0.920000 0.080000 0
0.940000 0.080000 0
0.960000 0.080000 0
0.980000 0.080000 0
1.000000 0.080000 0
0.000000 0.100000 0
0.020000 0.100000 0
0.040000 0.100000 0
0.060000 0.100000 0
0.080000 0.100000 0
0.100000 0.100000 0
0.120000 0.100000 0
0.140000 0.100000 0
0.160000 0.100000 0
0.180000 0.100000 0
0.200000 0.100000 0
0.220000 0.100000 0
0.240000 0.100000 0
0.260000 0.100000 0
0.280000 0.100000 0
0.300000 0.100000 0
0.320000 0.100000 0
0.340000 0.100000 0
0.360000 0.100000 0
0.380000 0.100000 0
0.400000 0.100000 0
0.420000 0.100000 0
0.440000 0.100000 0
0.460000 0.100000 0
0.480000 0.100000 0
0.500000 0.100000 0
0.520000 0.100000 0
0.540000 0.100000 0
0.560000 0.100000 0
0.580000 0.100000 0
0.600000 0.100000 0
0.620000 0.100000 0
0.640000 0.100000 0
0.660000 0.100000 0
0.680000 0.100000 0
0.700000 0.100000 0
0.720000 0.100000 0
0.740000 0.100000 0
0.760000 0.100000 0
0.780000 0.100000 0
0.800000 0.100000 0
0.820000 0.100000 0
0.840000 0.100000 0
0.860000 0.100000 0
0.880000 0.100000 0
0.900000 0.100000 0
0.920000 0.100000 0
0.940000 0.100000 0
0.960000 0.100000 0
0.980000 0.100000 0
1.000000 0.100000 0
0.000000 0.120000 0
0.020000 0.120000 0
0.040000 0.120000 0
0.060000 0.120000 0
0.080000 0.120000 0
0.100000 0.120000 0
0.120000 0.120000 0
0.140000 0.120000 0
0.160000 0.120000 0
0.180000 0.120000 0
0.200000 0.120000 0
0.220000 0.120000 0
0.240000 0.120000 0
0.260000 0.120000 0
0.280000 0.120000 0
0.300000 0.120000 0
0.320000 0.120000 0
0.340000 0.120000 0
0.360000 0.120000 0
0.380000 0.120000 0
0.400000 0.120000 0
0.420000 0.120000 0
0.440000 0.120000 0
0.460000 0.120000 0
0.480000 0.120000 0
0.500000 0.120000 0
0.520000 0.120000 0
0.540000 0.120000 0
0.560000 0.120000 0
0.580000 0.120000 0
0.600000 0.120000 0
0.620000 0.120000 0
0.640000 0.120000 0
0.660000 0.120000 0
0.680000 0.120000 0
0.700000 0.120000 0
0.720000 0.120000 0
0.740000 0.120000 0
0.760000 0.120000 0
0.780000 0.120000 0
0.800000 0.120000 0
0.820000 0.120000 0
0.840000 0.120000 0
0.860000 0.120000 0
0.880000 0.120000 0
0.900000 0.120000 0
0.920000 0.120000 0
0.940000 0.120000 0
0.960000 0.120000 0
0.980000 0.120000 0
1.000000 0.120000 0
0.000000 0.140000 0
0.020000 0.140000 0
0.040000 0.140000 0
0.060000 0.140000 0
0.080000 0.140000 0
0.100000 0.140000 0
0.120000 0.140000 0
0.140000 0.140000 0
0.160000 0.140000 0
0.180000 0.140000 0
0.200000 0.140000 0
0.220000 0.140000 0
0.240000 0.140000 0
0.260000 0.140000 0
0.280000 0.140000 0
0.300000 0.140000 0
0.320000 0.140000 0
0.340000 0.140000 0
0.360000 0.140000 0
0.380000 0.140000 0
0.400000 0.140000 0
0.420000 0.140000 0
0.440000 0.140000 0
0.460000 0.140000 0
0.480000 0.140000 0
0.500000 0.140000 0
0.520000 0.140000 0
0.540000 0.140000 0
0.560000 0.140000 0
0.580000 0.140000 0
0.600000 0.140000 0
0.620000 0.140000 0
0.640000 0.140000 0
0.660000 0.140000 0
0.680000 0.140000 0
0.700000 0.140000 0
0.720000 0.140000 0
0.740000 0.140000 0
0.760000 0.140000 0
0.780000 0.140000 0
0.800000 0.140000 0
0.820000 0.140000 0
0.840000 0.140000 0
0.860000 0.140000 0
0.880000 0.140000 0
0.900000 0.140000 0
0.920000 0.140000 0
0.940000 0.140000 0
0.960000 0.140000 0
0.980000 0.140000 0
1.000000 0.140000 0
0.000000 0.160000 0
0.020000 0.160000 0
0.040000 0.160000 0
0.060000 0.160000 0
0.080000 0.160000 0
0.100000 0.160000 0
0.120000 0.160000 0
0.140000 0.160000 0
0.160000 0.160000 0
0.180000 0.160000 0
0.200000 0.160000 0
0.220000 0.160000 0
0.240000 0.160000 0
0.260000 0.160000 0
0.280000 0.160000 0
0.300000 0.160000 0
0.320000 0.160000 0
0.340000 0.160000 0
0.360000 0.160000 0
0.380000 0.160000 0
0.400000 0.160000 0
0.420000 0.160000 0
0.440000 0.160000 0
0.460000 0.160000 0
0.480000 0.160000 0
0.500000 0.160000 0
0.520000 0.160000 0
0.540000 0.160000 0
0.560000 0.160000 0
0.580000 0.160000 0
0.600000 0.160000 0
0.620000 0.160000 0
0.640000 0.160000 0
0.660000 0.160000 0
0.680000 0.160000 0
0.700000 0.160000 0
0.720000 0.160000 0
0.740000 0.160000 0
0.760000 0.160000 0
0.780000 0.160000 0
0.800000 0.160000 0
0.820000 0.160000 0
0.840000 0.160000 0
0.860000 0.160000 0
0.880000 0.160000 0
0.900000 0.160000 0
0.920000 0.160000 0
0.940000 0.160000 0
0.960000 0.160000 0
0.980000 0.160000 0
1.000000 0.160000 0
0.000000 0.180000 0
0.020000 0.180000 0
0.040000 0.180000 0
0.060000 0.180000 0
0.080000 0.180000 0
0.100000 0.180000 0
0.120000 0.180000 0
0.140000 0.180000 0
0.160000 0.180000 0
0.180000 0.180000 0
0.200000 0.180000 0
0.220000 0.180000 0
0.240000 0.180000 0
0.260000 0.180000 0
0.280000 0.180000 0
0.300000 0.180000 0
0.320000 0.180000 0
0.340000 0.180000 0
0.360000 0.180000 0
0.380000 0.180000 0
0.400000 0.180000 0
0.420000 0.180000 0
0.440000 0.180000 0
0.460000 0.180000 0
0.480000 0.180000 0
0.500000 0.180000 0
0.520000 0.180000 0
0.540000 0.180000 0
0.560000 0.180000 0
0.580000 0.180000 0
0.600000 0.180000 0
0.620000 0.180000 0
[...]
POINT_DATA 2601 

VECTORS velocity float
0.000000 0.000000 0
0.000000 0.000000 0
0.000000 0.000000 0
0.000000 0.000000 0
0.000000 0.000000 0
0.000000 0.000000 0
0.000000 0.000000 0
0.000000 0.000000 0
0.000000 0.000000 0
0.000000 0.000000 0
0.000000 0.000000 0
0.000000 0.000000 0
0.000000 0.000000 0
0.000000 0.000000 0
0.000000 0.000000 0
0.000000 0.000000 0
0.000000 0.000000 0
0.000000 0.000000 0
0.000000 0.000000 0
0.000000 0.000000 0
0.000000 0.000000 0
0.000000 0.000000 0
0.000000 0.000000 0
0.000000 0.000000 0
0.000000 0.000000 0
0.000000 0.000000 0
0.000000 0.000000 0
0.000000 0.000000 0
0.000000 0.000000 0
0.000000 0.000000 0
0.000000 0.000000 0
0.000000 0.000000 0
0.000000 0.000000 0
0.000000 0.000000 0
0.000000 0.000000 0
0.000000 0.000000 0
0.000000 0.000000 0
0.000000 0.000000 0
0.000000 0.000000 0
0.000000 0.000000 0
0.000000 0.000000 0
0.000000 0.000000 0
0.000000 0.000000 0
0.000000 0.000000 0
0.000000 0.000000 0
0.000000 0.000000 0
0.000000 0.000000 0
0.000000 0.000000 0
0.000000 0.000000 0
0.000000 0.000000 0
0.000000 0.000000 0
0.000000 0.000000 0
0.000034 0.000010 0
0.000069 0.000020 0
0.000103 0.000029 0
0.000138 0.000039 0
0.000172 0.000048 0
0.000207 0.000057 0
0.000241 0.000065 0
0.000276 0.000073 0
0.000310 0.000081 0
0.000345 0.000088 0
0.000380 0.000095 0
0.000415 0.000101 0
0.000450 0.000107 0
0.000485 0.000112 0
0.000519 0.000116 0
0.000554 0.000120 0
0.000588 0.000124 0
0.000622 0.000127 0
0.000656 0.000129 0
0.000689 0.000131 0
0.000722 0.000133 0
0.000753 0.000134 0
0.000784 0.000134 0
0.000813 0.000134 0
0.000841 0.000134 0
0.000868 0.000133 0
0.000892 0.000132 0
0.000913 0.000130 0
0.000932 0.000128 0
0.000948 0.000126 0
0.000960 0.000123 0
0.000968 0.000120 0
0.000971 0.000116 0
0.000969 0.000112 0
0.000961 0.000108 0
0.000947 0.000103 0
0.000927 0.000098 0
0.000899 0.000092 0
0.000863 0.000086 0
0.000820 0.000079 0
0.000769 0.000072 0
0.000709 0.000065 0
0.000642 0.000057 0
0.000567 0.000049 0
0.000484 0.000041 0
0.000396 0.000032 0
0.000302 0.000023 0
0.000204 0.000014 0
0.000103 0.000005 0
0.000000 0.000000 0
0.000000 0.000000 0
0.000069 0.000020 0
0.000138 0.000039 0
0.000206 0.000059 0
0.000275 0.000078 0
0.000344 0.000096 0
0.000413 0.000114 0
0.000482 0.000131 0
0.000552 0.000147 0
0.000621 0.000162 0
0.000691 0.000177 0
0.000760 0.000190 0
0.000830 0.000202 0
0.000900 0.000214 0
0.000969 0.000224 0
0.001039 0.000233 0
0.001108 0.000241 0
0.001177 0.000248 0
0.001245 0.000254 0
0.001313 0.000259 0
0.001380 0.000263 0
0.001445 0.000266 0
0.001508 0.000268 0
0.001570 0.000269 0
0.001629 0.000269 0
0.001685 0.000268 0
0.001738 0.000267 0
0.001786 0.000264 0
0.001830 0.000261 0
0.001868 0.000257 0
0.001900 0.000252 0
0.001924 0.000247 0
0.001941 0.000240 0
0.001947 0.000233 0
0.001944 0.000225 0
0.001929 0.000216 0
0.001902 0.000206 0
0.001861 0.000196 0
0.001806 0.000185 0
0.001735 0.000172 0
0.001648 0.000159 0
0.001545 0.000145 0
0.001426 0.000130 0
0.001291 0.000115 0
0.001140 0.000099 0
0.000975 0.000082 0
0.000797 0.000064 0
0.000608 0.000046 0
0.000410 0.000028 0
0.000207 0.000009 0
0.000000 0.000000 0
0.000000 0.000000 0
0.000103 0.000030 0
0.000206 0.000059 0
0.000309 0.000089 0
0.000413 0.000117 0
0.000516 0.000145 0
0.000620 0.000172 0
0.000724 0.000197 0
0.000828 0.000222 0
0.000932 0.000245 0
0.001036 0.000266 0
0.001141 0.000287 0
0.001246 0.000305 0
0.001350 0.000322 0
0.001455 0.000337 0
0.001560 0.000351 0
0.001664 0.000363 0
0.001768 0.000374 0
0.001870 0.000383 0
0.001972 0.000390 0
0.002072 0.000396 0
0.002171 0.000400 0
0.002266 0.000403 0
0.002359 0.000405 0
0.002449 0.000405 0
0.002534 0.000404 0
0.002613 0.000401 0
0.002687 0.000398 0
0.002753 0.000393 0
0.002812 0.000387 0
0.002860 0.000380 0
0.002898 0.000371 0
0.002924 0.000361 0
0.002935 0.000351 0
0.002931 0.000339 0
0.002910 0.000325 0
0.002870 0.000311 0
0.002810 0.000295 0
0.002728 0.000278 0
0.002622 0.000259 0
0.002493 0.000240 0
0.002338 0.000219 0
0.002159 0.000197 0
0.001955 0.000173 0
0.001727 0.000149 0
0.001478 0.000123 0
0.001208 0.000097 0
0.000922 0.000070 0
0.000622 0.000042 0
0.000314 0.000014 0
0.000000 0.000000 0
0.000000 0.000000 0
0.000138 0.000040 0
0.000275 0.000080 0
0.000413 0.000119 0
0.000550 0.000157 0
0.000688 0.000195 0
0.000827 0.000231 0
0.000965 0.000265 0
0.001104 0.000298 0
0.001243 0.000329 0
0.001382 0.000358 0
0.001522 0.000385 0
0.001662 0.000410 0
0.001802 0.000432 0
0.001942 0.000453 0
0.002082 0.000471 0
0.002222 0.000487 0
0.002360 0.000501 0
0.002498 0.000513 0
0.002634 0.000523 0
0.002769 0.000530 0
0.002901 0.000536 0
0.003030 0.000540 0
0.003155 0.000542 0
0.003275 0.000542 0
0.003389 0.000541 0
0.003497 0.000537 0
0.003597 0.000533 0
0.003687 0.000526 0
0.003767 0.000518 0
0.003834 0.000508 0
0.003886 0.000497 0
0.003922 0.000484 0
0.003940 0.000470 0
0.003937 0.000454 0
0.003911 0.000436 0
0.003860 0.000416 0
0.003781 0.000395 0
0.003673 0.000372 0
0.003533 0.000348 0
0.003361 0.000322 0
0.003155 0.000294 0
0.002915 0.000264 0
0.002642 0.000233 0
0.002336 0.000200 0
0.001999 0.000165 0
0.001635 0.000130 0
0.001248 0.000094 0
0.000843 0.000057 0
0.000425 0.000019 0
0.000000 0.000000 0
0.000000 0.000000 0
0.000172 0.000051 0
0.000344 0.000101 0
0.000516 0.000150 0
0.000688 0.000199 0
0.000861 0.000246 0
0.001034 0.000291 0
0.001207 0.000335 0
0.001381 0.000376 0
0.001555 0.000415 0
0.001730 0.000452 0
0.001905 0.000486 0
0.002080 0.000517 0
0.002256 0.000545 0
0.002431 0.000571 0
0.002607 0.000594 0
0.002782 0.000614 0
0.002957 0.000631 0
0.003130 0.000646 0
0.003301 0.000658 0
0.003471 0.000667 0
0.003637 0.000675 0
0.003800 0.000679 0
0.003958 0.000682 0
0.004110 0.000682 0
0.004255 0.000680 0
0.004392 0.000676 0
0.004520 0.000669 0
0.004635 0.000661 0
0.004738 0.000651 0
0.004824 0.000639 0
0.004893 0.000625 0
0.004942 0.000608 0
0.004967 0.000590 0
0.004967 0.000570 0
0.004938 0.000548 0
0.004877 0.000524 0
0.004782 0.000497 0
0.004649 0.000469 0
0.004476 0.000438 0
0.004262 0.000405 0
0.004005 0.000370 0
0.003703 0.000332 0
0.003358 0.000293 0
0.002971 0.000252 0
0.002545 0.000209 0
0.002083 0.000164 0
0.001591 0.000118 0
0.001075 0.000071 0
0.000542 0.000024 0
0.000000 0.000000 0
0.000000 0.000000 0
0.000206 0.000062 0
0.000413 0.000123 0
0.000620 0.000183 0
0.000827 0.000242 0
0.001034 0.000299 0
0.001242 0.000354 0
0.001450 0.000407 0
0.001659 0.000457 0
0.001868 0.000504 0
0.002078 0.000549 0
0.002289 0.000590 0
0.002500 0.000627 0
0.002712 0.000661 0
0.002924 0.000692 0
0.003136 0.000720 0
0.003347 0.000744 0
0.003558 0.000765 0
0.003767 0.000782 0
0.003975 0.000796 0
0.004180 0.000808 0
0.004382 0.000816 0
0.004579 0.000821 0
0.004771 0.000824 0
0.004957 0.000824 0
0.005134 0.000821 0
0.005302 0.000816 0
0.005459 0.000809 0
0.005601 0.000799 0
0.005728 0.000786 0
0.005837 0.000772 0
0.005924 0.000755 0
0.005988 0.000735 0
0.006023 0.000713 0
0.006028 0.000689 0
0.005998 0.000662 0
0.005930 0.000633 0
0.005820 0.000601 0
0.005664 0.000567 0
0.005459 0.000530 0
0.005203 0.000490 0
0.004894 0.000448 0
0.004531 0.000403 0
0.004113 0.000355 0
0.003642 0.000305 0
0.003123 0.000253 0
0.002558 0.000199 0
0.001955 0.000143 0
0.001321 0.000087 0
0.000666 0.000029 0
0.000000 0.000000 0
0.000000 0.000000 0
0.000241 0.000073 0
0.000482 0.000146 0
0.000724 0.000217 0
0.000965 0.000287 0
0.001208 0.000355 0
0.001450 0.000420 0
0.001694 0.000482 0
0.001938 0.000542 0
0.002183 0.000597 0
0.002429 0.000649 0
0.002676 0.000698 0
0.002923 0.000742 0
0.003171 0.000782 0
0.003420 0.000818 0
0.003669 0.000850 0
0.003917 0.000878 0
0.004165 0.000902 0
0.004411 0.000922 0
0.004656 0.000939 0
0.004898 0.000952 0
0.005136 0.000961 0
0.005370 0.000967 0
0.005598 0.000970 0
0.005818 0.000970 0
0.006029 0.000966 0
0.006230 0.000960 0
0.006417 0.000951 0
0.006589 0.000939 0
0.006743 0.000925 0
0.006876 0.000907 0
0.006985 0.000887 0
0.007065 0.000864 0
0.007114 0.000839 0
0.007126 0.000810 0
0.007098 0.000779 0
0.007025 0.000745 0
0.006902 0.000708 0
0.006726 0.000667 0
0.006491 0.000624 0
0.006194 0.000578 0
0.005833 0.000528 0
0.005407 0.000475 0
0.004914 0.000419 0
0.004357 0.000360 0
0.003738 0.000299 0
0.003065 0.000235 0
0.002344 0.000170 0
0.001585 0.000102 0
0.000799 0.000034 0
0.000000 0.000000 0
0.000000 0.000000 0
0.000276 0.000085 0
0.000552 0.000170 0
0.000828 0.000253 0
0.001105 0.000334 0
0.001382 0.000413 0
0.001660 0.000489 0
0.001939 0.000562 0
0.002219 0.000630 0
0.002500 0.000695 0
0.002782 0.000755 0
0.003065 0.000810 0
0.003350 0.000861 0
0.003635 0.000907 0
0.003921 0.000949 0
0.004207 0.000985 0
0.004494 0.001017 0
0.004780 0.001045 0
0.005064 0.001067 0
0.005347 0.001086 0
0.005627 0.001100 0
0.005904 0.001111 0
0.006175 0.001117 0
0.006440 0.001120 0
0.006697 0.001120 0
0.006944 0.001115 0
0.007179 0.001108 0
0.007400 0.001097 0
0.007603 0.001083 0
0.007787 0.001066 0
0.007947 0.001046 0
0.008079 0.001023 0
0.008180 0.000997 0
0.008245 0.000967 0
0.008268 0.000934 0
0.008245 0.000899 0
0.008171 0.000859 0
0.008038 0.000817 0
0.007843 0.000771 0
0.007580 0.000721 0
0.007244 0.000667 0
0.006831 0.000610 0
0.006340 0.000549 0
0.005770 0.000485 0
0.005122 0.000417 0
0.004401 0.000346 0
0.003611 0.000273 0
0.002764 0.000197 0
0.001870 0.000119 0
0.000944 0.000040 0
0.000000 0.000000 0
0.000000 0.000000 0
0.000311 0.000098 0
0.000622 0.000196 0
0.000933 0.000291 0
0.001245 0.000385 0
0.001557 0.000475 0
0.001871 0.000562 0
0.002186 0.000645 0
0.002502 0.000724 0
0.002819 0.000797 0
0.003138 0.000866 0
0.003459 0.000929 0
0.003781 0.000987 0
0.004104 0.001039 0
0.004428 0.001086 0
0.004753 0.001127 0
0.005079 0.001162 0
0.005404 0.001193 0
0.005728 0.001218 0
0.006050 0.001239 0
0.006370 0.001255 0
0.006686 0.001266 0
0.006997 0.001273 0
0.007301 0.001275 0
0.007596 0.001274 0
0.007881 0.001269 0
0.008153 0.001260 0
0.008410 0.001247 0
0.008648 0.001231 0
0.008864 0.001212 0
0.009054 0.001188 0
0.009214 0.001162 0
0.009339 0.001132 0
0.009423 0.001099 0
0.009461 0.001062 0
0.009447 0.001021 0
0.009374 0.000977 0
0.009236 0.000929 0
0.009025 0.000877 0
0.008735 0.000820 0
0.008361 0.000760 0
0.007898 0.000695 0
0.007342 0.000626 0
0.006692 0.000553 0
0.005949 0.000476 0
0.005118 0.000395 0
0.004205 0.000311 0
0.003221 0.000225 0
0.002181 0.000136 0
0.001101 0.000045 0
0.000000 0.000000 0
0.000000 0.000000 0
0.000346 0.000112 0
0.000692 0.000223 0
0.001039 0.000332 0
0.001386 0.000439 0
0.001734 0.000542 0
0.002084 0.000641 0
0.002435 0.000735 0
0.002787 0.000823 0
0.003142 0.000907 0
0.003498 0.000984 0
0.003857 0.001055 0
0.004217 0.001119 0
0.004579 0.001178 0
0.004943 0.001230 0
0.005307 0.001275 0
0.005673 0.001315 0
0.006039 0.001348 0
0.006404 0.001376 0
0.006767 0.001398 0
0.007128 0.001415 0
0.007486 0.001427 0
0.007838 0.001434 0
0.008183 0.001436 0
0.008520 0.001434 0
0.008845 0.001427 0
0.009157 0.001417 0
0.009452 0.001402 0
0.009728 0.001384 0
0.009980 0.001361 0
0.010204 0.001335 0
0.010395 0.001305 0
0.010547 0.001272 0
0.010655 0.001234 0
0.010713 0.001193 0
0.010712 0.001147 0
0.010645 0.001098 0
0.010504 0.001044 0
0.010281 0.000986 0
0.009968 0.000923 0
0.009558 0.000855 0
0.009044 0.000783 0
0.008422 0.000706 0
0.007690 0.000624 0
0.006847 0.000537 0
0.005899 0.000446 0
0.004853 0.000352 0
0.003722 0.000254 0
0.002522 0.000153 0
0.001274 0.000051 0
0.000000 0.000000 0
0.000000 0.000000 0
0.000381 0.000127 0
0.000763 0.000253 0
0.001145 0.000376 0
0.001528 0.000497 0
0.001913 0.000613 0
0.002298 0.000724 0
0.002686 0.000830 0
0.003076 0.000930 0
0.003468 0.001023 0
0.003863 0.001110 0
0.004260 0.001189 0
0.004660 0.001260 0
0.005062 0.001325 0
0.005466 0.001382 0
0.005872 0.001432 0
0.006279 0.001475 0
0.006687 0.001512 0
0.007094 0.001542 0
0.007501 0.001565 0
0.007905 0.001583 0
0.008306 0.001595 0
0.008702 0.001602 0
0.009091 0.001603 0
0.009471 0.001600 0
0.009839 0.001592 0
0.010194 0.001579 0
0.010531 0.001562 0
0.010848 0.001541 0
0.011139 0.001516 0
0.011401 0.001486 0
0.011627 0.001453 0
0.011812 0.001415 0
0.011948 0.001374 0
0.012029 0.001328 0
0.012046 0.001277 0
0.011990 0.001222 0
0.011852 0.001163 0
0.011621 0.001098 0
0.011288 0.001028 0
0.010845 0.000954 0
0.010282 0.000873 0
0.009594 0.000788 0
0.008776 0.000697 0
0.007829 0.000600 0
0.006756 0.000499 0
0.005566 0.000394 0
0.004274 0.000284 0
0.002899 0.000172 0
0.001465 0.000057 0
0.000000 0.000000 0
0.000000 0.000000 0
0.000417 0.000143 0
0.000834 0.000285 0
0.001253 0.000424 0
0.001672 0.000559 0
0.002093 0.000690 0
0.002515 0.000815 0
0.002941 0.000934 0
0.003368 0.001045 0
0.003799 0.001149 0
0.004233 0.001244 0
0.004670 0.001332 0
0.005110 0.001411 0
0.005553 0.001482 0
0.005999 0.001544 0
0.006448 0.001599 0
0.006898 0.001645 0
0.007350 0.001684 0
0.007802 0.001716 0
0.008253 0.001741 0
0.008703 0.001759 0
0.009150 0.001771 0
0.009592 0.001777 0
0.010027 0.001778 0
0.010454 0.001773 0
0.010869 0.001763 0
0.011269 0.001748 0
0.011652 0.001728 0
0.012013 0.001704 0
0.012348 0.001676 0
0.012651 0.001643 0
0.012917 0.001605 0
0.013139 0.001564 0
0.013309 0.001517 0
0.013419 0.001467 0
0.013460 0.001411 0
0.013420 0.001351 0
0.013289 0.001285 0
0.013056 0.001214 0
0.012708 0.001137 0
0.012234 0.001055 0
0.011624 0.000967 0
0.010869 0.000873 0
0.009964 0.000772 0
0.008906 0.000666 0
0.007700 0.000554 0
0.006354 0.000437 0
0.004886 0.000316 0
0.003317 0.000191 0
0.001678 0.000064 0
0.000000 0.000000 0
0.000000 0.000000 0
0.000453 0.000161 0
0.000907 0.000320 0
0.001361 0.000476 0
0.001817 0.000628 0
0.002275 0.000774 0
0.002735 0.000914 0
0.003198 0.001046 0
0.003665 0.001170 0
0.004135 0.001285 0
0.004609 0.001390 0
0.005087 0.001486 0
0.005569 0.001573 0
0.006055 0.001650 0
0.006545 0.001718 0
0.007037 0.001776 0
0.007533 0.001826 0
0.008031 0.001868 0
0.008529 0.001901 0
0.009028 0.001926 0
0.009526 0.001945 0
0.010021 0.001956 0
0.010512 0.001961 0
0.010997 0.001960 0
0.011473 0.001953 0
0.011937 0.001941 0
0.012387 0.001923 0
0.012820 0.001901 0
0.013229 0.001874 0
0.013612 0.001841 0
0.013962 0.001804 0
0.014273 0.001763 0
0.014537 0.001717 0
0.014747 0.001666 0
0.014892 0.001610 0
0.014962 0.001549 0
0.014945 0.001483 0
0.014828 0.001411 0
0.014598 0.001333 0
0.014240 0.001250 0
0.013740 0.001160 0
0.013085 0.001063 0
0.012264 0.000960 0
0.011268 0.000850 0
0.010094 0.000734 0
0.008745 0.000611 0
0.007230 0.000482 0
0.005568 0.000349 0
0.003785 0.000211 0
0.001915 0.000071 0
0.000000 0.000000 0
0.000000 0.000000 0
0.000490 0.000180 0
0.000980 0.000359 0
0.001471 0.000534 0
0.001964 0.000704 0
0.002459 0.000867 0
0.002958 0.001023 0
0.003460 0.001169 0
0.003966 0.001306 0
0.004477 0.001433 0
0.004992 0.001549 0
0.005513 0.001654 0
0.006038 0.001748 0
0.006569 0.001831 0
0.007104 0.001904 0
0.007643 0.001967 0
0.008186 0.002019 0
0.008732 0.002063 0
0.009280 0.002097 0
0.009828 0.002123 0
0.010377 0.002141 0
0.010924 0.002151 0
0.011467 0.002155 0
0.012004 0.002152 0
0.012533 0.002143 0
0.013051 0.002128 0
0.013554 0.002107 0
0.014040 0.002081 0
0.014503 0.002050 0
0.014938 0.002013 0
0.015340 0.001972 0
0.015701 0.001926 0
0.016014 0.001875 0
0.016269 0.001819 0
0.016455 0.001758 0
0.016562 0.001691 0
0.016574 0.001619 0
0.016479 0.001541 0
0.016258 0.001457 0
0.015897 0.001366 0
0.015376 0.001268 0
0.014680 0.001163 0
0.013794 0.001051 0
0.012706 0.000931 0
0.011411 0.000804 0
0.009908 0.000670 0
0.008209 0.000529 0
0.006333 0.000383 0
0.004310 0.000232 0
0.002183 0.000078 0
0.000000 0.000000 0
0.000000 0.000000 0
0.000526 0.000202 0
0.001054 0.000402 0
0.001582 0.000598 0
0.002113 0.000788 0
0.002646 0.000969 0
0.003184 0.001142 0
0.003726 0.001304 0
0.004273 0.001456 0
0.004825 0.001595 0
0.005384 0.001722 0
0.005948 0.001836 0
0.006519 0.001938 0
0.007096 0.002028 0
0.007678 0.002105 0
0.008266 0.002171 0
0.008859 0.002227 0
0.009456 0.002271 0
0.010056 0.002306 0
0.010658 0.002332 0
0.011260 0.002349 0
0.011862 0.002358 0
0.012460 0.002359 0
0.013054 0.002354 0
0.013640 0.002341 0
0.014215 0.002323 0
0.014776 0.002299 0
0.015320 0.002269 0
0.015841 0.002233 0
0.016334 0.002193 0
0.016793 0.002147 0
0.017210 0.002096 0
0.017578 0.002040 0
0.017885 0.001978 0
0.018120 0.001911 0
0.018270 0.001839 0
0.018321 0.001760 0
0.018254 0.001675 0
0.018052 0.001583 0
0.017694 0.001485 0
0.017159 0.001379 0
0.016427 0.001265 0
0.015478 0.001144 0
0.014297 0.001014 0
0.012874 0.000876 0
0.011207 0.000730 0
0.009307 0.000577 0
0.007193 0.000418 0
0.004904 0.000253 0
0.002486 0.000085 0
0.000000 0.000000 0
0.000000 0.000000 0
0.000564 0.000226 0
0.001128 0.000450 0
0.001694 0.000669 0
0.002263 0.000881 0
0.002836 0.001083 0
0.003413 0.001275 0
0.003996 0.001454 0
0.004585 0.001621 0
0.005181 0.001773 0
0.005784 0.001912 0
0.006395 0.002035 0
0.007013 0.002145 0
0.007638 0.002241 0
0.008271 0.002323 0
0.008911 0.002393 0
0.009556 0.002450 0
0.010207 0.002495 0
0.010863 0.002530 0
0.011521 0.002555 0
0.012181 0.002570 0
0.012841 0.002577 0
0.013499 0.002576 0
0.014153 0.002567 0
0.014800 0.002551 0
0.015437 0.002528 0
0.016060 0.002500 0
0.016667 0.002465 0
0.017251 0.002425 0
0.017807 0.002379 0
0.018329 0.002328 0
0.018809 0.002272 0
0.019238 0.002210 0
0.019604 0.002143 0
0.019896 0.002069 0
0.020099 0.001990 0
0.020196 0.001905 0
0.020168 0.001813 0
0.019993 0.001714 0
0.019647 0.001607 0
0.019106 0.001493 0
0.018344 0.001371 0
0.017336 0.001239 0
0.016062 0.001099 0
0.014507 0.000950 0
0.012664 0.000793 0
0.010543 0.000627 0
0.008167 0.000454 0
0.005577 0.000275 0
0.002830 0.000092 0
0.000000 0.000000 0
0.000000 0.000000 0
0.000601 0.000254 0
0.001204 0.000505 0
0.001808 0.000749 0
0.002416 0.000986 0
0.003029 0.001211 0
0.003647 0.001423 0
0.004272 0.001622 0
0.004904 0.001804 0
0.005545 0.001971 0
0.006195 0.002121 0
0.006854 0.002255 0
0.007522 0.002372 0
0.008199 0.002474 0
0.008884 0.002560 0
0.009579 0.002632 0
0.010281 0.002691 0
0.010989 0.002737 0
0.011703 0.002771 0
0.012422 0.002794 0
0.013144 0.002806 0
0.013866 0.002810 0
0.014588 0.002805 0
0.015307 0.002792 0
0.016019 0.002772 0
0.016723 0.002744 0
0.017415 0.002711 0
0.018089 0.002671 0
0.018742 0.002625 0
0.019368 0.002574 0
0.019959 0.002517 0
0.020508 0.002455 0
0.021005 0.002387 0
0.021439 0.002313 0
0.021796 0.002233 0
0.022061 0.002147 0
0.022214 0.002054 0
0.022234 0.001955 0
0.022097 0.001848 0
0.021774 0.001733 0
0.021237 0.001610 0
0.020453 0.001478 0
0.019392 0.001337 0
0.018026 0.001186 0
0.016333 0.001026 0
0.014303 0.000856 0
0.011942 0.000677 0
0.009273 0.000491 0
0.006344 0.000298 0
0.003224 0.000100 0
0.000000 0.000000 0
0.000000 0.000000 0
0.000639 0.000285 0
0.001280 0.000566 0
0.001923 0.000840 0
0.002571 0.001104 0
0.003224 0.001355 0
0.003884 0.001590 0
0.004553 0.001809 0
0.005231 0.002009 0
0.005918 0.002191 0
0.006617 0.002354 0
0.007326 0.002497 0
0.008047 0.002622 0
0.008779 0.002730 0
0.009521 0.002820 0
0.010274 0.002893 0
0.011036 0.002952 0
0.011806 0.002997 0
0.012584 0.003029 0
0.013367 0.003050 0
0.014155 0.003059 0
0.014945 0.003058 0
0.015735 0.003049 0
0.016524 0.003031 0
0.017308 0.003005 0
0.018083 0.002972 0
0.018848 0.002933 0
0.019596 0.002887 0
0.020324 0.002835 0
0.021025 0.002778 0
0.021693 0.002715 0
0.022319 0.002645 0
0.022892 0.002571 0
0.023402 0.002490 0
0.023833 0.002403 0
0.024169 0.002309 0
0.024389 0.002208 0
0.024469 0.002101 0
0.024382 0.001985 0
0.024095 0.001861 0
0.023573 0.001729 0
0.022778 0.001587 0
0.021671 0.001435 0
0.020216 0.001274 0
0.018383 0.001102 0
0.016154 0.000920 0
0.013530 0.000728 0
0.010535 0.000528 0
0.007223 0.000320 0
0.003676 0.000107 0
0.000000 0.000000 0
0.000000 0.000000 0
0.000678 0.000321 0
0.001357 0.000636 0
0.002039 0.000944 0
0.002727 0.001239 0
0.003422 0.001518 0
0.004126 0.001779 0
0.004839 0.002020 0
0.005564 0.002240 0
0.006301 0.002437 0
0.007052 0.002613 0
0.007815 0.002766 0
0.008592 0.002899 0
0.009382 0.003011 0
0.010185 0.003104 0
0.011000 0.003179 0
0.011827 0.003237 0
0.012664 0.003280 0
0.013509 0.003309 0
0.014363 0.003325 0
0.015222 0.003329 0
0.016085 0.003324 0
0.016949 0.003308 0
0.017813 0.003284 0
0.018674 0.003252 0
0.019527 0.003213 0
0.020371 0.003167 0
0.021200 0.003114 0