# vtk DataFile Version 2.0
generated by CFD-lab course output (written by Tobias Neckel) 
ASCII

DATASET STRUCTURED_GRID
DIMENSIONS  51 51 1 
POINTS 2601 float

0.000000 0.000000 0
0.020000 0.000000 0
0.040000 0.000000 0
0.060000 0.000000 0
0.080000 0.000000 0
0.100000 0.000000 0
0.120000 0.000000 0
0.140000 0.000000 0
0.160000 0.000000 0
0.180000 0.000000 0
0.200000 0.000000 0
0.220000 0.000000 0
0.240000 0.000000 0
0.260000 0.000000 0
0.280000 0.000000 0
0.300000 0.000000 0
0.320000 0.000000 0
0.340000 0.000000 0
0.360000 0.000000 0
0.380000 0.000000 0
0.400000 0.000000 0
0.420000 0.000000 0
0.440000 0.000000 0
0.460000 0.000000 0
0.480000 0.000000 0
0.500000 0.000000 0
0.520000 0.000000 0
0.540000 0.000000 0
0.560000 0.000000 0
0.580000 0.000000 0
0.600000 0.000000 0
0.620000 0.000000 0
0.640000 0.000000 0
0.660000 0.000000 0
0.680000 0.000000 0
0.700000 0.000000 0
0.720000 0.000000 0
0.740000 0.000000 0
0.760000 0.000000 0
0.780000 0.000000 0
0.800000 0.000000 0
0.820000 0.000000 0
0.840000 0.000000 0
0.860000 0.000000 0
0.880000 0.000000 0
0.900000 0.000000 0
0.920000 0.000000 0
0.940000 0.000000 0
0.960000 0.000000 0
0.980000 0.000000 0
1.000000 0.000000 0
0.000000 0.020000 0
0.020000 0.020000 0
0.040000 0.020000 0
0.060000 0.020000 0
0.080000 0.020000 0
0.100000 0.020000 0
0.120000 0.020000 0
0.140000 0.020000 0
0.160000 0.020000 0
0.180000 0.020000 0
0.200000 0.020000 0
0.220000 0.020000 0
0.240000 0.020000 0
0.260000 0.020000 0
0.280000 0.020000 0
0.300000 0.020000 0
0.320000 0.020000 0
0.340000 0.020000 0
0.360000 0.020000 0
0.380000 0.020000 0
0.400000 0.020000 0
0.420000 0.020000 0
0.440000 0.020000 0
0.460000 0.020000 0
0.480000 0.020000 0
0.500000 0.020000 0
0.520000 0.020000 0
0.540000 0.020000 0
0.560000 0.020000 0
0.580000 0.020000 0
0.600000 0.020000 0
0.620000 0.020000 0
0.640000 0.020000 0
0.660000 0.020000 0
0.680000 0.020000 0
0.700000 0.020000 0
0.720000 0.020000 0
0.740000 0.020000 0
0.760000 0.020000 0
0.780000 0.020000 0
0.800000 0.020000 0
0.820000 0.020000 0
0.840000 0.020000 0
0.860000 0.020000 0
0.880000 0.020000 0
0.900000 0.020000 0
0.920000 0.020000 0
0.940000 0.020000 0
0.960000 0.020000 0
0.980000 0.020000 0
1.000000 0.020000 0
0.000000 0.040000 0
0.020000 0.040000 0
0.040000 0.040000 0
0.060000 0.040000 0
0.080000 0.040000 0
0.100000 0.040000 0
0.120000 0.040000 0
0.140000 0.040000 0
0.160000 0.040000 0
0.180000 0.040000 0
0.200000 0.040000 0
0.220000 0.040000 0
0.240000 0.040000 0
0.260000 0.040000 0
0.280000 0.040000 0
0.300000 0.040000 0
0.320000 0.040000 0
0.340000 0.040000 0
0.360000 0.040000 0
0.380000 0.040000 0
0.400000 0.040000 0
0.420000 0.040000 0
0.440000 0.040000 0
0.460000 0.040000 0
0.480000 0.040000 0
0.500000 0.040000 0
0.520000 0.040000 0
0.540000 0.040000 0
0.560000 0.040000 0
0.580000 0.040000 0
0.600000 0.040000 0
0.620000 0.040000 0
0.640000 0.040000 0
0.660000 0.040000 0
0.680000 0.040000 0
0.700000 0.040000 0
0.720000 0.040000 0
0.740000 0.040000 0
0.760000 0.040000 0
0.780000 0.040000 0
0.800000 0.040000 0
0.820000 0.040000 0
0.840000 0.040000 0
0.860000 0.040000 0
0.880000 0.040000 0
0.900000 0.040000 0
0.920000 0.040000 0
0.940000 0.040000 0
0.960000 0.040000 0
0.980000 0.040000 0
1.000000 0.040000 0
0.000000 0.060000 0
0.020000 0.060000 0
0.040000 0.060000 0
0.060000 0.060000 0
0.080000 0.060000 0
0.100000 0.060000 0
0.120000 0.060000 0
0.140000 0.060000 0
0.160000 0.060000 0
0.180000 0.060000 0
0.200000 0.060000 0
0.220000 0.060000 0
0.240000 0.060000 0
0.260000 0.060000 0
0.280000 0.060000 0
0.300000 0.060000 0
0.320000 0.060000 0
0.340000 0.060000 0
0.360000 0.060000 0
0.380000 0.060000 0
0.400000 0.060000 0
0.420000 0.060000 0
0.440000 0.060000 0
0.460000 0.060000 0
0.480000 0.060000 0
0.500000 0.060000 0
0.520000 0.060000 0
0.540000 0.060000 0
0.560000 0.060000 0
0.580000 0.060000 0
0.600000 0.060000 0
0.620000 0.060000 0
0.640000 0.060000 0
0.660000 0.060000 0
0.680000 0.060000 0
0.700000 0.060000 0
0.720000 0.060000 0
0.740000 0.060000 0
0.760000 0.060000 0
0.780000 0.060000 0
0.800000 0.060000 0
0.820000 0.060000 0
0.840000 0.060000 0
0.860000 0.060000 0
0.880000 0.060000 0
0.900000 0.060000 0
0.920000 0.060000 0
0.940000 0.060000 0
0.960000 0.060000 0
0.980000 0.060000 0
1.000000 0.060000 0
0.000000 0.080000 0
0.020000 0.080000 0
0.040000 0.080000 0
0.060000 0.080000 0
0.080000 0.080000 0
0.100000 0.080000 0
0.120000 0.080000 0
0.140000 0.080000 0
0.160000 0.080000 0
0.180000 0.080000 0
0.200000 0.080000 0
0.220000 0.080000 0
0.240000 0.080000 0
0.260000 0.080000 0
0.280000 0.080000 0
0.300000 0.080000 0
0.320000 0.080000 0
0.340000 0.080000 0
0.360000 0.080000 0
0.380000 0.080000 0
0.400000 0.080000 0
0.420000 0.080000 0
0.440000 0.080000 0
0.460000 0.080000 0
0.480000 0.080000 0
0.500000 0.080000 0
0.520000 0.080000 0
0.540000 0.080000 0
0.560000 0.080000 0
0.580000 0.080000 0
0.600000 0.080000 0
0.620000 0.080000 0
0.640000 0.080000 0
0.660000 0.080000 0
0.680000 0.080000 0
0.700000 0.080000 0
0.720000 0.080000 0
0.740000 0.080000 0
0.760000 0.080000 0
0.780000 0.080000 0
0.800000 0.080000 0
0.820000 0.080000 0
0.840000 0.080000 0
0.860000 0.080000 0
0.880000 0.080000 0
0.900000 0.080000 0
0.920000 0.080000 0
0.940000 0.080000 0
0.960000 0.080000 0
0.980000 0.080000 0
1.000000 0.080000 0
0.000000 0.100000 0
0.020000 0.100000 0
0.040000 0.100000 0
0.060000 0.100000 0
0.080000 0.100000 0
0.100000 0.100000 0
0.120000 0.100000 0
0.140000 0.100000 0
0.160000 0.100000 0
0.180000 0.100000 0
0.200000 0.100000 0
0.220000 0.100000 0
0.240000 0.100000 0
0.260000 0.100000 0
0.280000 0.100000 0
0.300000 0.100000 0
0.320000 0.100000 0
0.340000 0.100000 0
0.360000 0.100000 0
0.380000 0.100000 0
0.400000 0.100000 0
0.420000 0.100000 0
0.440000 0.100000 0
0.460000 0.100000 0
0.480000 0.100000 0
0.500000 0.100000 0
0.520000 0.100000 0
0.540000 0.100000 0
0.560000 0.100000 0
0.580000 0.100000 0
0.600000 0.100000 0
0.620000 0.100000 0
0.640000 0.100000 0
0.660000 0.100000 0
0.680000 0.100000 0
0.700000 0.100000 0
0.720000 0.100000 0
0.740000 0.100000 0
0.760000 0.100000 0
0.780000 0.100000 0
0.800000 0.100000 0
0.820000 0.100000 0
0.840000 0.100000 0
0.860000 0.100000 0
0.880000 0.100000 0
0.900000 0.100000 0
0.920000 0.100000 0
0.940000 0.100000 0
0.960000 0.100000 0
0.980000 0.100000 0
1.000000 0.100000 0
0.000000 0.120000 0
0.020000 0.120000 0
0.040000 0.120000 0
0.060000 0.120000 0
0.080000 0.120000 0
0.100000 0.120000 0
0.120000 0.120000 0
0.140000 0.120000 0
0.160000 0.120000 0
0.180000 0.120000 0
0.200000 0.120000 0
0.220000 0.120000 0
0.240000 0.120000 0
0.260000 0.120000 0
0.280000 0.120000 0
0.300000 0.120000 0
0.320000 0.120000 0
0.340000 0.120000 0
0.360000 0.120000 0
0.380000 0.120000 0
0.400000 0.120000 0
0.420000 0.120000 0
0.440000 0.120000 0
0.460000 0.120000 0
0.480000 0.120000 0
0.500000 0.120000 0
0.520000 0.120000 0
0.540000 0.120000 0
0.560000 0.120000 0
0.580000 0.120000 0
0.600000 0.120000 0
0.620000 0.120000 0
0.640000 0.120000 0
0.660000 0.120000 0
0.680000 0.120000 0
0.700000 0.120000 0
0.720000 0.120000 0
0.740000 0.120000 0
0.760000 0.120000 0
0.780000 0.120000 0
0.800000 0.120000 0
0.820000 0.120000 0
0.840000 0.120000 0
0.860000 0.120000 0
0.880000 0.120000 0
0.900000 0.120000 0
0.920000 0.120000 0
0.940000 0.120000 0
0.960000 0.120000 0
0.980000 0.120000 0
1.000000 0.120000 0
0.000000 0.140000 0
0.020000 0.140000 0
0.040000 0.140000 0
0.060000 0.140000 0
0.080000 0.140000 0
0.100000 0.140000 0
0.120000 0.140000 0
0.140000 0.140000 0
0.160000 0.140000 0
0.180000 0.140000 0
0.200000 0.140000 0
0.220000 0.140000 0
0.240000 0.140000 0
0.260000 0.140000 0
0.280000 0.140000 0
0.300000 0.140000 0
0.320000 0.140000 0
0.340000 0.140000 0
0.360000 0.140000 0
0.380000 0.140000 0
0.400000 0.140000 0
0.420000 0.140000 0
0.440000 0.140000 0
0.460000 0.140000 0
0.480000 0.140000 0
0.500000 0.140000 0
0.520000 0.140000 0
0.540000 0.140000 0
0.560000 0.140000 0
0.580000 0.140000 0
0.600000 0.140000 0
0.620000 0.140000 0
0.640000 0.140000 0
0.660000 0.140000 0
0.680000 0.140000 0
0.700000 0.140000 0
0.720000 0.140000 0
0.740000 0.140000 0
0.760000 0.140000 0
0.780000 0.140000 0
0.800000 0.140000 0
0.820000 0.140000 0
0.840000 0.140000 0
0.860000 0.140000 0
0.880000 0.140000 0
0.900000 0.140000 0
0.920000 0.140000 0
0.940000 0.140000 0
0.960000 0.140000 0
0.980000 0.140000 0
1.000000 0.140000 0
0.000000 0.160000 0
0.020000 0.160000 0
0.040000 0.160000 0
0.060000 0.160000 0
0.080000 0.160000 0
0.100000 0.160000 0
0.120000 0.160000 0
0.140000 0.160000 0
0.160000 0.160000 0
0.180000 0.160000 0
0.200000 0.160000 0
0.220000 0.160000 0
0.240000 0.160000 0
0.260000 0.160000 0
0.280000 0.160000 0
0.300000 0.160000 0
0.320000 0.160000 0
0.340000 0.160000 0
0.360000 0.160000 0
0.380000 0.160000 0
0.400000 0.160000 0
0.420000 0.160000 0
0.440000 0.160000 0
0.460000 0.160000 0
0.480000 0.160000 0
0.500000 0.160000 0
0.520000 0.160000 0
0.540000 0.160000 0
0.560000 0.160000 0
0.580000 0.160000 0
0.600000 0.160000 0
0.620000 0.160000 0
0.640000 0.160000 0
0.660000 0.160000 0
0.680000 0.160000 0
0.700000 0.160000 0
0.720000 0.160000 0
0.740000 0.160000 0
0.760000 0.160000 0
0.780000 0.160000 0
0.800000 0.160000 0
0.820000 0.160000 0
0.840000 0.160000 0
0.860000 0.160000 0
0.880000 0.160000 0
0.900000 0.160000 0
0.920000 0.160000 0
0.940000 0.160000 0
0.960000 0.160000 0
0.980000 0.160000 0
1.000000 0.160000 0
0.000000 0.180000 0
0.020000 0.180000 0
0.040000 0.180000 0
0.060000 0.180000 0
0.080000 0.180000 0
0.100000 0.180000 0
0.120000 0.180000 0
0.140000 0.180000 0
0.160000 0.180000 0
0.180000 0.180000 0
0.200000 0.180000 0
0.220000 0.180000 0
0.240000 0.180000 0
0.260000 0.180000 0
0.280000 0.180000 0
0.300000 0.180000 0
0.320000 0.180000 0
0.340000 0.180000 0
0.360000 0.180000 0
0.380000 0.180000 0
0.400000 0.180000 0
0.420000 0.180000 0
0.440000 0.180000 0
0.460000 0.180000 0
0.480000 0.180000 0
0.500000 0.180000 0
0.520000 0.180000 0
0.540000 0.180000 0
0.560000 0.180000 0
0.580000 0.180000 0
0.600000 0.180000 0
0.620000 0.180000 0
[...]
POINT_DATA 2601 

VECTORS velocity float
0.000000 0.000000 0
0.000000 0.000000 0
0.000000 0.000000 0
0.000000 0.000000 0
0.000000 0.000000 0
0.000000 0.000000 0
0.000000 0.000000 0
0.000000 0.000000 0
0.000000 0.000000 0
0.000000 0.000000 0
0.000000 0.000000 0
0.000000 0.000000 0
0.000000 0.000000 0
0.000000 0.000000 0
0.000000 0.000000 0
0.000000 0.000000 0
0.000000 0.000000 0
0.000000 0.000000 0
0.000000 0.000000 0
0.000000 0.000000 0
0.000000 0.000000 0
0.000000 0.000000 0
0.000000 0.000000 0
0.000000 0.000000 0
0.000000 0.000000 0
0.000000 0.000000 0
0.000000 0.000000 0
0.000000 0.000000 0
0.000000 0.000000 0
0.000000 0.000000 0
0.000000 0.000000 0
0.000000 0.000000 0
0.000000 0.000000 0
0.000000 0.000000 0
0.000000 0.000000 0
0.000000 0.000000 0
0.000000 0.000000 0
0.000000 0.000000 0
0.000000 0.000000 0
0.000000 0.000000 0
0.000000 0.000000 0
0.000000 0.000000 0
0.000000 0.000000 0
0.000000 0.000000 0
0.000000 0.000000 0
0.000000 0.000000 0
0.000000 0.000000 0
0.000000 0.000000 0
0.000000 0.000000 0
0.000000 0.000000 0
0.000000 0.000000 0
0.000000 0.000000 0
0.000034 0.000010 0
0.000069 0.000020 0
0.000103 0.000029 0
0.000138 0.000039 0
0.000172 0.000048 0
0.000207 0.000057 0
0.000241 0.000065 0
0.000276 0.000073 0
0.000311 0.000081 0
0.000345 0.000088 0
0.000380 0.000095 0
0.000415 0.000101 0
0.000450 0.000107 0
0.000485 0.000112 0
0.000519 0.000116 0
0.000554 0.000121 0
0.000588 0.000124 0
0.000622 0.000127 0
0.000656 0.000130 0
0.000689 0.000131 0
0.000722 0.000133 0
0.000754 0.000134 0
0.000784 0.000135 0
0.000814 0.000135 0
0.000842 0.000134 0
0.000868 0.000133 0
0.000892 0.000132 0
0.000914 0.000131 0
0.000932 0.000129 0
0.000948 0.000126 0
0.000960 0.000124 0
0.000968 0.000120 0
0.000971 0.000117 0
0.000969 0.000113 0
0.000961 0.000108 0
0.000948 0.000103 0
0.000927 0.000098 0
0.000899 0.000092 0
0.000864 0.000086 0
0.000820 0.000080 0
0.000769 0.000073 0
0.000709 0.000065 0
0.000642 0.000057 0
0.000567 0.000049 0
0.000484 0.000041 0
0.000396 0.000032 0
0.000302 0.000023 0
0.000204 0.000014 0
0.000103 0.000005 0
0.000000 0.000000 0
0.000000 0.000000 0
0.000069 0.000020 0
0.000138 0.000039 0
0.000206 0.000059 0
0.000275 0.000078 0
0.000344 0.000096 0
0.000413 0.000114 0
0.000482 0.000131 0
0.000552 0.000147 0
0.000621 0.000163 0
0.000691 0.000177 0
0.000760 0.000191 0
0.000830 0.000203 0
0.000900 0.000214 0
0.000970 0.000224 0
0.001039 0.000234 0
0.001108 0.000242 0
0.001177 0.000249 0
0.001246 0.000255 0
0.001313 0.000260 0
0.001380 0.000264 0
0.001445 0.000266 0
0.001509 0.000268 0
0.001570 0.000270 0
0.001629 0.000270 0
0.001685 0.000269 0
0.001738 0.000267 0
0.001787 0.000265 0
0.001830 0.000262 0
0.001868 0.000258 0
0.001900 0.000253 0
0.001925 0.000247 0
0.001941 0.000241 0
0.001948 0.000234 0
0.001944 0.000226 0
0.001929 0.000217 0
0.001902 0.000207 0
0.001861 0.000197 0
0.001806 0.000185 0
0.001735 0.000173 0
0.001649 0.000160 0
0.001546 0.000146 0
0.001426 0.000131 0
0.001291 0.000115 0
0.001140 0.000099 0
0.000975 0.000082 0
0.000797 0.000064 0
0.000608 0.000046 0
0.000410 0.000028 0
0.000207 0.000009 0
0.000000 0.000000 0
0.000000 0.000000 0
0.000103 0.000030 0
0.000206 0.000059 0
0.000310 0.000089 0
0.000413 0.000117 0
0.000516 0.000145 0
0.000620 0.000172 0
0.000724 0.000198 0
0.000828 0.000222 0
0.000932 0.000245 0
0.001036 0.000267 0
0.001141 0.000287 0
0.001246 0.000306 0
0.001351 0.000323 0
0.001455 0.000338 0
0.001560 0.000352 0
0.001664 0.000364 0
0.001768 0.000375 0
0.001871 0.000383 0
0.001972 0.000391 0
0.002073 0.000397 0
0.002171 0.000401 0
0.002267 0.000404 0
0.002360 0.000406 0
0.002449 0.000406 0
0.002534 0.000405 0
0.002614 0.000402 0
0.002687 0.000399 0
0.002754 0.000394 0
0.002812 0.000388 0
0.002861 0.000381 0
0.002899 0.000372 0
0.002924 0.000363 0
0.002936 0.000352 0
0.002932 0.000340 0
0.002911 0.000326 0
0.002871 0.000312 0
0.002810 0.000296 0
0.002728 0.000279 0
0.002623 0.000260 0
0.002493 0.000241 0
0.002339 0.000220 0
0.002159 0.000197 0
0.001955 0.000174 0
0.001728 0.000149 0
0.001478 0.000124 0
0.001208 0.000097 0
0.000922 0.000070 0
0.000622 0.000042 0
0.000314 0.000014 0
0.000000 0.000000 0
0.000000 0.000000 0
0.000138 0.000040 0
0.000275 0.000080 0
0.000413 0.000119 0
0.000551 0.000158 0
0.000689 0.000195 0
0.000827 0.000231 0
0.000965 0.000266 0
0.001104 0.000299 0
0.001243 0.000330 0
0.001383 0.000359 0
0.001523 0.000386 0
0.001663 0.000411 0
0.001803 0.000433 0
0.001943 0.000454 0
0.002083 0.000472 0
0.002222 0.000488 0
0.002361 0.000502 0
0.002499 0.000514 0
0.002635 0.000524 0
0.002769 0.000532 0
0.002901 0.000537 0
0.003030 0.000541 0
0.003155 0.000543 0
0.003275 0.000544 0
0.003390 0.000542 0
0.003498 0.000539 0
0.003598 0.000534 0
0.003688 0.000528 0
0.003767 0.000520 0
0.003834 0.000510 0
0.003887 0.000499 0
0.003923 0.000486 0
0.003940 0.000471 0
0.003937 0.000455 0
0.003911 0.000437 0
0.003860 0.000418 0
0.003781 0.000397 0
0.003673 0.000374 0
0.003534 0.000349 0
0.003362 0.000323 0
0.003156 0.000295 0
0.002916 0.000265 0
0.002642 0.000233 0
0.002336 0.000200 0
0.001999 0.000166 0
0.001635 0.000131 0
0.001248 0.000094 0
0.000843 0.000057 0
0.000425 0.000019 0
0.000000 0.000000 0
0.000000 0.000000 0
0.000172 0.000051 0
0.000344 0.000101 0
0.000516 0.000151 0
0.000689 0.000199 0
0.000861 0.000246 0
0.001034 0.000292 0
0.001208 0.000336 0
0.001381 0.000377 0
0.001555 0.000416 0
0.001730 0.000453 0
0.001905 0.000487 0
0.002081 0.000518 0
0.002256 0.000546 0
0.002432 0.000572 0
0.002608 0.000595 0
0.002783 0.000615 0
0.002957 0.000633 0
0.003131 0.000647 0
0.003302 0.000659 0
0.003471 0.000669 0
0.003638 0.000676 0
0.003800 0.000681 0
0.003958 0.000683 0
0.004111 0.000684 0
0.004256 0.000682 0
0.004393 0.000677 0
0.004520 0.000671 0
0.004636 0.000663 0
0.004738 0.000653 0
0.004825 0.000641 0
0.004894 0.000627 0
0.004942 0.000610 0
0.004968 0.000592 0
0.004968 0.000572 0
0.004938 0.000550 0
0.004878 0.000526 0
0.004782 0.000499 0
0.004649 0.000470 0
0.004477 0.000440 0
0.004263 0.000406 0
0.004005 0.000371 0
0.003704 0.000334 0
0.003359 0.000294 0
0.002972 0.000253 0
0.002545 0.000210 0
0.002083 0.000165 0
0.001591 0.000119 0
0.001075 0.000072 0
0.000542 0.000024 0
0.000000 0.000000 0
0.000000 0.000000 0
0.000207 0.000062 0
0.000413 0.000123 0
0.000620 0.000183 0
0.000827 0.000242 0
0.001034 0.000300 0
0.001242 0.000355 0
0.001450 0.000408 0
0.001659 0.000458 0
0.001869 0.000505 0
0.002079 0.000550 0
0.002290 0.000591 0
0.002501 0.000628 0
0.002713 0.000663 0
0.002924 0.000694 0
0.003136 0.000721 0
0.003348 0.000745 0
0.003558 0.000766 0
0.003768 0.000784 0
0.003976 0.000798 0
0.004181 0.000810 0
0.004382 0.000818 0
0.004580 0.000823 0
0.004772 0.000826 0
0.004958 0.000826 0
0.005135 0.000824 0
0.005303 0.000819 0
0.005459 0.000811 0
0.005602 0.000801 0
0.005729 0.000789 0
0.005838 0.000774 0
0.005925 0.000757 0
0.005988 0.000737 0
0.006024 0.000716 0
0.006029 0.000691 0
0.005999 0.000665 0
0.005931 0.000635 0
0.005820 0.000603 0
0.005664 0.000569 0
0.005460 0.000532 0
0.005204 0.000492 0
0.004895 0.000449 0
0.004531 0.000404 0
0.004113 0.000357 0
0.003643 0.000306 0
0.003123 0.000254 0
0.002558 0.000200 0
0.001955 0.000144 0
0.001321 0.000087 0
0.000666 0.000029 0
0.000000 0.000000 0
0.000000 0.000000 0
0.000241 0.000073 0
0.000482 0.000146 0
0.000724 0.000218 0
0.000966 0.000288 0
0.001208 0.000355 0
0.001451 0.000421 0
0.001694 0.000483 0
0.001938 0.000543 0
0.002184 0.000598 0
0.002430 0.000651 0
0.002676 0.000699 0
0.002924 0.000743 0
0.003172 0.000783 0
0.003421 0.000820 0
0.003669 0.000852 0
0.003918 0.000880 0
0.004166 0.000904 0
0.004412 0.000924 0
0.004657 0.000941 0
0.004899 0.000954 0
0.005137 0.000963 0
0.005371 0.000970 0
0.005599 0.000972 0
0.005819 0.000972 0
0.006030 0.000969 0
0.006231 0.000963 0
0.006418 0.000954 0
0.006590 0.000942 0
0.006744 0.000927 0
0.006877 0.000910 0
0.006986 0.000890 0
0.007066 0.000867 0
0.007115 0.000841 0
0.007127 0.000813 0
0.007099 0.000782 0
0.007026 0.000747 0
0.006903 0.000710 0
0.006726 0.000670 0
0.006492 0.000626 0
0.006195 0.000580 0
0.005834 0.000530 0
0.005407 0.000477 0
0.004914 0.000421 0
0.004357 0.000362 0
0.003739 0.000300 0
0.003065 0.000236 0
0.002344 0.000170 0
0.001585 0.000103 0
0.000799 0.000034 0
0.000000 0.000000 0
0.000000 0.000000 0
0.000276 0.000085 0
0.000552 0.000170 0
0.000828 0.000254 0
0.001105 0.000335 0
0.001382 0.000414 0
0.001660 0.000490 0
0.001939 0.000563 0
0.002219 0.000631 0
0.002501 0.000696 0
0.002783 0.000756 0
0.003066 0.000812 0
0.003351 0.000863 0
0.003636 0.000909 0
0.003922 0.000951 0
0.004208 0.000987 0
0.004495 0.001019 0
0.004781 0.001047 0
0.005065 0.001070 0
0.005348 0.001088 0
0.005628 0.001103 0
0.005905 0.001113 0
0.006176 0.001120 0
0.006441 0.001123 0
0.006698 0.001122 0
0.006945 0.001118 0
0.007180 0.001111 0
0.007401 0.001100 0
0.007605 0.001086 0
0.007788 0.001069 0
0.007948 0.001049 0
0.008080 0.001026 0
0.008181 0.001000 0
0.008246 0.000970 0
0.008269 0.000937 0
0.008246 0.000902 0
0.008172 0.000862 0
0.008039 0.000819 0
0.007844 0.000773 0
0.007581 0.000723 0
0.007244 0.000670 0
0.006832 0.000612 0
0.006341 0.000551 0
0.005771 0.000487 0
0.005123 0.000419 0
0.004401 0.000348 0
0.003612 0.000274 0
0.002764 0.000197 0
0.001870 0.000119 0
0.000944 0.000040 0
0.000000 0.000000 0
0.000000 0.000000 0
0.000311 0.000098 0
0.000622 0.000196 0
0.000933 0.000292 0
0.001245 0.000385 0
0.001558 0.000476 0
0.001871 0.000563 0
0.002186 0.000646 0
0.002502 0.000725 0
0.002820 0.000799 0
0.003139 0.000867 0
0.003460 0.000931 0
0.003782 0.000989 0
0.004105 0.001041 0
0.004429 0.001088 0
0.004754 0.001129 0
0.005080 0.001165 0
0.005405 0.001195 0
0.005729 0.001221 0
0.006051 0.001242 0
0.006371 0.001257 0
0.006687 0.001269 0
0.006998 0.001276 0
0.007302 0.001278 0
0.007597 0.001277 0
0.007882 0.001272 0
0.008155 0.001263 0
0.008411 0.001250 0
0.008649 0.001234 0
0.008865 0.001215 0
0.009055 0.001192 0
0.009215 0.001165 0
0.009340 0.001135 0
0.009424 0.001102 0
0.009463 0.001065 0
0.009448 0.001024 0
0.009375 0.000980 0
0.009237 0.000932 0
0.009026 0.000879 0
0.008736 0.000823 0
0.008362 0.000762 0
0.007899 0.000698 0
0.007343 0.000628 0
0.006693 0.000555 0
0.005950 0.000478 0
0.005118 0.000397 0
0.004205 0.000313 0
0.003221 0.000225 0
0.002181 0.000136 0
0.001101 0.000046 0
0.000000 0.000000 0
0.000000 0.000000 0
0.000346 0.000112 0
0.000692 0.000223 0
0.001039 0.000333 0
0.001386 0.000439 0
0.001735 0.000542 0
0.002084 0.000641 0
0.002435 0.000736 0
0.002788 0.000825 0
0.003143 0.000908 0
0.003499 0.000985 0
0.003858 0.001057 0
0.004218 0.001121 0
0.004580 0.001180 0
0.004944 0.001232 0
0.005309 0.001278 0
0.005674 0.001317 0
0.006040 0.001351 0
0.006405 0.001379 0
0.006768 0.001401 0
0.007129 0.001418 0
0.007487 0.001430 0
0.007839 0.001437 0
0.008184 0.001439 0
0.008521 0.001437 0
0.008846 0.001431 0
0.009158 0.001420 0
0.009454 0.001406 0
0.009729 0.001387 0
0.009981 0.001365 0
0.010205 0.001339 0
0.010396 0.001309 0
0.010548 0.001275 0
0.010657 0.001238 0
0.010714 0.001196 0
0.010713 0.001151 0
0.010646 0.001101 0
0.010505 0.001047 0
0.010282 0.000989 0
0.009969 0.000926 0
0.009559 0.000858 0
0.009045 0.000785 0
0.008423 0.000708 0
0.007691 0.000626 0
0.006848 0.000539 0
0.005900 0.000448 0
0.004853 0.000353 0
0.003722 0.000255 0
0.002522 0.000154 0
0.001274 0.000052 0
0.000000 0.000000 0
0.000000 0.000000 0
0.000381 0.000127 0
0.000763 0.000253 0
0.001145 0.000377 0
0.001529 0.000497 0
0.001913 0.000614 0
0.002299 0.000725 0
0.002687 0.000832 0
0.003077 0.000931 0
0.003469 0.001025 0
0.003864 0.001111 0
0.004261 0.001190 0
0.004661 0.001262 0
0.005063 0.001327 0
0.005467 0.001384 0
0.005873 0.001435 0
0.006280 0.001478 0
0.006688 0.001515 0
0.007095 0.001545 0
0.007502 0.001568 0
0.007906 0.001586 0
0.008307 0.001598 0
0.008703 0.001605 0
0.009092 0.001607 0
0.009472 0.001603 0
0.009841 0.001595 0
0.010195 0.001583 0
0.010533 0.001566 0
0.010849 0.001545 0
0.011141 0.001520 0
0.011402 0.001490 0
0.011628 0.001457 0
0.011813 0.001419 0
0.011950 0.001377 0
0.012030 0.001331 0
0.012047 0.001281 0
0.011991 0.001226 0
0.011853 0.001166 0
0.011622 0.001102 0
0.011290 0.001032 0
0.010846 0.000957 0
0.010283 0.000876 0
0.009595 0.000790 0
0.008777 0.000699 0
0.007829 0.000602 0
0.006756 0.000501 0
0.005566 0.000395 0
0.004274 0.000285 0
0.002899 0.000172 0
0.001465 0.000058 0
0.000000 0.000000 0
0.000000 0.000000 0
0.000417 0.000143 0
0.000835 0.000285 0
0.001253 0.000425 0
0.001672 0.000560 0
0.002093 0.000691 0
0.002516 0.000816 0
0.002941 0.000935 0
0.003369 0.001047 0
0.003800 0.001150 0
0.004234 0.001246 0
0.004671 0.001334 0
0.005111 0.001413 0
0.005554 0.001484 0
0.006000 0.001547 0
0.006449 0.001601 0
0.006899 0.001648 0
0.007351 0.001687 0
0.007803 0.001719 0
0.008255 0.001744 0
0.008705 0.001763 0
0.009151 0.001775 0
0.009593 0.001781 0
0.010029 0.001781 0
0.010455 0.001776 0
0.010870 0.001767 0
0.011271 0.001752 0
0.011653 0.001732 0
0.012014 0.001708 0
0.012349 0.001680 0
0.012653 0.001647 0
0.012919 0.001609 0
0.013141 0.001568 0
0.013311 0.001521 0
0.013421 0.001471 0
0.013461 0.001415 0
0.013421 0.001354 0
0.013291 0.001289 0
0.013057 0.001218 0
0.012709 0.001141 0
0.012235 0.001058 0
0.011625 0.000970 0
0.010870 0.000875 0
0.009964 0.000775 0
0.008907 0.000668 0
0.007700 0.000556 0
0.006355 0.000439 0
0.004886 0.000317 0
0.003318 0.000192 0
0.001678 0.000064 0
0.000000 0.000000 0
0.000000 0.000000 0
0.000453 0.000161 0
0.000907 0.000320 0
0.001361 0.000477 0
0.001817 0.000629 0
0.002275 0.000775 0
0.002736 0.000915 0
0.003199 0.001047 0
0.003666 0.001171 0
0.004136 0.001286 0
0.004610 0.001392 0
0.005088 0.001488 0
0.005570 0.001575 0
0.006056 0.001652 0
0.006546 0.001720 0
0.007039 0.001779 0
0.007534 0.001829 0
0.008032 0.001871 0
0.008531 0.001904 0
0.009030 0.001930 0
0.009527 0.001948 0
0.010023 0.001960 0
0.010514 0.001965 0
0.010998 0.001964 0
0.011474 0.001957 0
0.011939 0.001945 0
0.012389 0.001928 0
0.012821 0.001905 0
0.013231 0.001878 0
0.013614 0.001846 0
0.013964 0.001809 0
0.014274 0.001767 0
0.014539 0.001721 0
0.014748 0.001670 0
0.014893 0.001614 0
0.014963 0.001553 0
0.014946 0.001487 0
0.014829 0.001415 0
0.014599 0.001337 0
0.014241 0.001254 0
0.013741 0.001163 0
0.013086 0.001067 0
0.012265 0.000963 0
0.011269 0.000853 0
0.010095 0.000736 0
0.008746 0.000613 0
0.007231 0.000484 0
0.005569 0.000350 0
0.003785 0.000212 0
0.001916 0.000071 0
0.000000 0.000000 0
0.000000 0.000000 0
0.000490 0.000181 0
0.000980 0.000359 0
0.001471 0.000535 0
0.001964 0.000705 0
0.002460 0.000868 0
0.002958 0.001024 0
0.003461 0.001170 0
0.003967 0.001308 0
0.004478 0.001434 0
0.004993 0.001551 0
0.005514 0.001656 0
0.006039 0.001750 0
0.006570 0.001834 0
0.007105 0.001907 0
0.007644 0.001970 0
0.008187 0.002022 0
0.008733 0.002066 0
0.009281 0.002100 0
0.009830 0.002126 0
0.010379 0.002145 0
0.010925 0.002155 0
0.011468 0.002159 0
0.012005 0.002156 0
0.012534 0.002147 0
0.013052 0.002132 0
0.013556 0.002111 0
0.014042 0.002085 0
0.014505 0.002054 0
0.014940 0.002018 0
0.015342 0.001977 0
0.015703 0.001931 0
0.016015 0.001880 0
0.016270 0.001824 0
0.016457 0.001763 0
0.016563 0.001696 0
0.016576 0.001624 0
0.016480 0.001545 0
0.016260 0.001461 0
0.015898 0.001370 0
0.015377 0.001272 0
0.014681 0.001167 0
0.013795 0.001054 0
0.012707 0.000934 0
0.011411 0.000806 0
0.009909 0.000672 0
0.008209 0.000531 0
0.006333 0.000384 0
0.004311 0.000232 0
0.002183 0.000078 0
0.000000 0.000000 0
0.000000 0.000000 0
0.000527 0.000202 0
0.001054 0.000403 0
0.001582 0.000598 0
0.002113 0.000788 0
0.002647 0.000970 0
0.003184 0.001143 0
0.003726 0.001306 0
0.004274 0.001457 0
0.004826 0.001597 0
0.005385 0.001724 0
0.005949 0.001838 0
0.006520 0.001940 0
0.007097 0.002030 0
0.007680 0.002108 0
0.008268 0.002174 0
0.008861 0.002230 0
0.009457 0.002275 0
0.010058 0.002310 0
0.010659 0.002336 0
0.011262 0.002353 0
0.011863 0.002362 0
0.012462 0.002363 0
0.013055 0.002358 0
0.013641 0.002346 0
0.014217 0.002327 0
0.014778 0.002303 0
0.015322 0.002273 0
0.015843 0.002238 0
0.016336 0.002197 0
0.016794 0.002152 0
0.017212 0.002101 0
0.017579 0.002044 0
0.017886 0.001983 0
0.018121 0.001916 0
0.018272 0.001843 0
0.018322 0.001764 0
0.018255 0.001679 0
0.018053 0.001588 0
0.017695 0.001489 0
0.017160 0.001383 0
0.016428 0.001269 0
0.015479 0.001147 0
0.014298 0.001017 0
0.012875 0.000879 0
0.011208 0.000733 0
0.009307 0.000579 0
0.007194 0.000419 0
0.004904 0.000254 0
0.002486 0.000085 0
0.000000 0.000000 0
0.000000 0.000000 0
0.000564 0.000227 0
0.001128 0.000451 0
0.001695 0.000670 0
0.002264 0.000882 0
0.002837 0.001084 0
0.003414 0.001276 0
0.003997 0.001456 0
0.004586 0.001622 0
0.005182 0.001775 0
0.005785 0.001914 0
0.006396 0.002038 0
0.007014 0.002148 0
0.007640 0.002244 0
0.008272 0.002326 0
0.008912 0.002396 0
0.009558 0.002453 0
0.010209 0.002499 0
0.010864 0.002534 0
0.011522 0.002559 0
0.012182 0.002574 0
0.012842 0.002581 0
0.013500 0.002580 0
0.014154 0.002571 0
0.014801 0.002555 0
0.015438 0.002533 0
0.016062 0.002504 0
0.016668 0.002470 0
0.017253 0.002430 0
0.017809 0.002384 0
0.018331 0.002333 0
0.018811 0.002277 0
0.019239 0.002215 0
0.019606 0.002147 0
0.019898 0.002074 0
0.020101 0.001995 0
0.020197 0.001910 0
0.020169 0.001818 0
0.019994 0.001718 0
0.019648 0.001612 0
0.019107 0.001497 0
0.018345 0.001374 0
0.017337 0.001243 0
0.016063 0.001102 0
0.014507 0.000953 0
0.012665 0.000795 0
0.010544 0.000629 0
0.008167 0.000455 0
0.005577 0.000276 0
0.002831 0.000092 0
0.000000 0.000000 0
0.000000 0.000000 0
0.000601 0.000254 0
0.001204 0.000505 0
0.001809 0.000750 0
0.002417 0.000986 0
0.003029 0.001212 0
0.003648 0.001425 0
0.004273 0.001623 0
0.004905 0.001806 0
0.005546 0.001973 0
0.006196 0.002123 0
0.006855 0.002257 0
0.007523 0.002375 0
0.008200 0.002477 0
0.008886 0.002563 0
0.009580 0.002635 0
0.010282 0.002694 0
0.010991 0.002740 0
0.011705 0.002774 0
0.012424 0.002797 0
0.013145 0.002810 0
0.013868 0.002814 0
0.014590 0.002809 0
0.015308 0.002796 0
0.016021 0.002776 0
0.016725 0.002749 0
0.017416 0.002715 0
0.018091 0.002676 0
0.018744 0.002630 0
0.019369 0.002579 0
0.019961 0.002522 0
0.020510 0.002460 0
0.021007 0.002392 0
0.021441 0.002318 0
0.021798 0.002238 0
0.022062 0.002152 0
0.022215 0.002059 0
0.022235 0.001960 0
0.022098 0.001853 0
0.021776 0.001737 0
0.021238 0.001614 0
0.020454 0.001482 0
0.019393 0.001340 0
0.018027 0.001189 0
0.016334 0.001029 0
0.014304 0.000858 0
0.011942 0.000679 0
0.009273 0.000492 0
0.006344 0.000298 0
0.003224 0.000100 0
0.000000 0.000000 0
0.000000 0.000000 0
0.000639 0.000285 0
0.001280 0.000567 0
0.001924 0.000841 0
0.002571 0.001105 0
0.003225 0.001356 0
0.003885 0.001592 0
0.004553 0.001810 0
0.005231 0.002011 0
0.005919 0.002193 0
0.006618 0.002356 0
0.007328 0.002500 0
0.008048 0.002625 0
0.008780 0.002732 0
0.009523 0.002822 0
0.010275 0.002897 0
0.011037 0.002956 0
0.011808 0.003001 0
0.012585 0.003033 0
0.013369 0.003053 0
0.014156 0.003063 0
0.014947 0.003062 0
0.015737 0.003053 0
0.016525 0.003035 0
0.017309 0.003009 0
0.018085 0.002977 0
0.018849 0.002937 0
0.019598 0.002892 0
0.020326 0.002840 0
0.021027 0.002783 0
0.021694 0.002720 0
0.022320 0.002651 0
0.022894 0.002576 0
0.023403 0.002495 0
0.023835 0.002408 0
0.024170 0.002314 0
0.024390 0.002213 0
0.024470 0.002106 0
0.024383 0.001990 0
0.024096 0.001866 0
0.023574 0.001733 0
0.022779 0.001591 0
0.021672 0.001439 0
0.020217 0.001277 0
0.018384 0.001105 0
0.016155 0.000922 0
0.013530 0.000730 0
0.010535 0.000529 0
0.007223 0.000321 0
0.003676 0.000108 0
0.000000 0.000000 0
0.000000 0.000000 0
0.000678 0.000321 0
0.001357 0.000637 0
0.002040 0.000944 0
0.002728 0.001239 0
0.003423 0.001519 0
0.004126 0.001780 0
0.004840 0.002021 0
0.005565 0.002241 0
0.006302 0.002439 0
0.007053 0.002615 0
0.007816 0.002769 0
0.008593 0.002901 0
0.009383 0.003013 0
0.010186 0.003107 0
0.011002 0.003182 0
0.011828 0.003240 0
0.012665 0.003283 0
0.013511 0.003312 0
0.014364 0.003329 0
0.015223 0.003333 0
0.016086 0.003328 0
0.016951 0.003312 0
0.017815 0.003289 0
0.018675 0.003257 0
0.019529 0.003217 0
0.020372 0.003171 0
0.021201 0.003119 0