# vtk DataFile Version 2.0
generated by CFD-lab course output (written by Tobias Neckel) 
ASCII

DATASET STRUCTURED_GRID
DIMENSIONS  51 51 1 
POINTS 2601 float

0.000000 0.000000 0
0.020000 0.000000 0
0.040000 0.000000 0
0.060000 0.000000 0
0.080000 0.000000 0
0.100000 0.000000 0
0.120000 0.000000 0
0.140000 0.000000 0
0.160000 0.000000 0
0.180000 0.000000 0
0.200000 0.000000 0
0.220000 0.000000 0
0.240000 0.000000 0
0.260000 0.000000 0
0.280000 0.000000 0
0.300000 0.000000 0
0.320000 0.000000 0
0.340000 0.000000 0
0.360000 0.000000 0
0.380000 0.000000 0
0.400000 0.000000 0
0.420000 0.000000 0
0.440000 0.000000 0
0.460000 0.000000 0
0.480000 0.000000 0
0.500000 0.000000 0
0.520000 0.000000 0
0.540000 0.000000 0
0.560000 0.000000 0
0.580000 0.000000 0
0.600000 0.000000 0
0.620000 0.000000 0
0.640000 0.000000 0
0.660000 0.000000 0
0.680000 0.000000 0
0.700000 0.000000 0
0.720000 0.000000 0
0.740000 0.000000 0
0.760000 0.000000 0
0.780000 0.000000 0
0.800000 0.000000 0
0.820000 0.000000 0
0.840000 0.000000 0
0.860000 0.000000 0
0.880000 0.000000 0
0.900000 0.000000 0
0.920000 0.000000 0
0.940000 0.000000 0
0.960000 0.000000 0
0.980000 0.000000 0
1.000000 0.000000 0
0.000000 0.020000 0
0.020000 0.020000 0
0.040000 0.020000 0
0.060000 0.020000 0
0.080000 0.020000 0
0.100000 0.020000 0
0.120000 0.020000 0
0.140000 0.020000 0
0.160000 0.020000 0
0.180000 0.020000 0
0.200000 0.020000 0
0.220000 0.020000 0
0.240000 0.020000 0
0.260000 0.020000 0
0.280000 0.020000 0
0.300000 0.020000 0
0.320000 0.020000 0
0.340000 0.020000 0
0.360000 0.020000 0
0.380000 0.020000 0
0.400000 0.020000 0
0.420000 0.020000 0
0.440000 0.020000 0
0.460000 0.020000 0
0.480000 0.020000 0
0.500000 0.020000 0
0.520000 0.020000 0
0.540000 0.020000 0
0.560000 0.020000 0
0.580000 0.020000 0
0.600000 0.020000 0
0.620000 0.020000 0
0.640000 0.020000 0
0.660000 0.020000 0
0.680000 0.020000 0
0.700000 0.020000 0
0.720000 0.020000 0
0.740000 0.020000 0
0.760000 0.020000 0
0.780000 0.020000 0
0.800000 0.020000 0
0.820000 0.020000 0
0.840000 0.020000 0
0.860000 0.020000 0
0.880000 0.020000 0
0.900000 0.020000 0
0.920000 0.020000 0
0.940000 0.020000 0
0.960000 0.020000 0
0.980000 0.020000 0
1.000000 0.020000 0
0.000000 0.040000 0
0.020000 0.040000 0
0.040000 0.040000 0
0.060000 0.040000 0
0.080000 0.040000 0
0.100000 0.040000 0
0.120000 0.040000 0
0.140000 0.040000 0
0.160000 0.040000 0
0.180000 0.040000 0
0.200000 0.040000 0
0.220000 0.040000 0
0.240000 0.040000 0
0.260000 0.040000 0
0.280000 0.040000 0
0.300000 0.040000 0
0.320000 0.040000 0
0.340000 0.040000 0
0.360000 0.040000 0
0.380000 0.040000 0
0.400000 0.040000 0
0.420000 0.040000 0
0.440000 0.040000 0
0.460000 0.040000 0
0.480000 0.040000 0
0.500000 0.040000 0
0.520000 0.040000 0
0.540000 0.040000 0
0.560000 0.040000 0
0.580000 0.040000 0
0.600000 0.040000 0
0.620000 0.040000 0
0.640000 0.040000 0
0.660000 0.040000 0
0.680000 0.040000 0
0.700000 0.040000 0
0.720000 0.040000 0
0.740000 0.040000 0
0.760000 0.040000 0
0.780000 0.040000 0
0.800000 0.040000 0
0.820000 0.040000 0
0.840000 0.040000 0
0.860000 0.040000 0
0.880000 0.040000 0
0.900000 0.040000 0
0.920000 0.040000 0
0.940000 0.040000 0
0.960000 0.040000 0
0.980000 0.040000 0
1.000000 0.040000 0
0.000000 0.060000 0
0.020000 0.060000 0
0.040000 0.060000 0
0.060000 0.060000 0
0.080000 0.060000 0
0.100000 0.060000 0
0.120000 0.060000 0
0.140000 0.060000 0
0.160000 0.060000 0
0.180000 0.060000 0
0.200000 0.060000 0
0.220000 0.060000 0
0.240000 0.060000 0
0.260000 0.060000 0
0.280000 0.060000 0
0.300000 0.060000 0
0.320000 0.060000 0
0.340000 0.060000 0
0.360000 0.060000 0
0.380000 0.060000 0
0.400000 0.060000 0
0.420000 0.060000 0
0.440000 0.060000 0
0.460000 0.060000 0
0.480000 0.060000 0
0.500000 0.060000 0
0.520000 0.060000 0
0.540000 0.060000 0
0.560000 0.060000 0
0.580000 0.060000 0
0.600000 0.060000 0
0.620000 0.060000 0
0.640000 0.060000 0
0.660000 0.060000 0
0.680000 0.060000 0
0.700000 0.060000 0
0.720000 0.060000 0
0.740000 0.060000 0
0.760000 0.060000 0
0.780000 0.060000 0
0.800000 0.060000 0
0.820000 0.060000 0
0.840000 0.060000 0
0.860000 0.060000 0
0.880000 0.060000 0
0.900000 0.060000 0
0.920000 0.060000 0
0.940000 0.060000 0
0.960000 0.060000 0
0.980000 0.060000 0
1.000000 0.060000 0
0.000000 0.080000 0
0.020000 0.080000 0
0.040000 0.080000 0
0.060000 0.080000 0
0.080000 0.080000 0
0.100000 0.080000 0
0.120000 0.080000 0
0.140000 0.080000 0
0.160000 0.080000 0
0.180000 0.080000 0
0.200000 0.080000 0
0.220000 0.080000 0
0.240000 0.080000 0
0.260000 0.080000 0
0.280000 0.080000 0
0.300000 0.080000 0
0.320000 0.080000 0
0.340000 0.080000 0
0.360000 0.080000 0
0.380000 0.080000 0
0.400000 0.080000 0
0.420000 0.080000 0
0.440000 0.080000 0
0.460000 0.080000 0
0.480000 0.080000 0
0.500000 0.080000 0
0.520000 0.080000 0
0.540000 0.080000 0
0.560000 0.080000 0
0.580000 0.080000 0
0.600000 0.080000 0
0.620000 0.080000 0
0.640000 0.080000 0
0.660000 0.080000 0
0.680000 0.080000 0
0.700000 0.080000 0
0.720000 0.080000 0
0.740000 0.080000 0
0.760000 0.080000 0
0.780000 0.080000 0
0.800000 0.080000 0
0.820000 0.080000 0
0.840000 0.080000 0
0.860000 0.080000 0
0.880000 0.080000 0
0.900000 0.080000 0
0.920000 0.080000 0
0.940000 0.080000 0
0.960000 0.080000 0
0.980000 0.080000 0
1.000000 0.080000 0
0.000000 0.100000 0
0.020000 0.100000 0
0.040000 0.100000 0
0.060000 0.100000 0
0.080000 0.100000 0
0.100000 0.100000 0
0.120000 0.100000 0
0.140000 0.100000 0
0.160000 0.100000 0
0.180000 0.100000 0
0.200000 0.100000 0
0.220000 0.100000 0
0.240000 0.100000 0
0.260000 0.100000 0
0.280000 0.100000 0
0.300000 0.100000 0
0.320000 0.100000 0
0.340000 0.100000 0
0.360000 0.100000 0
0.380000 0.100000 0
0.400000 0.100000 0
0.420000 0.100000 0
0.440000 0.100000 0
0.460000 0.100000 0
0.480000 0.100000 0
0.500000 0.100000 0
0.520000 0.100000 0
0.540000 0.100000 0
0.560000 0.100000 0
0.580000 0.100000 0
0.600000 0.100000 0
0.620000 0.100000 0
0.640000 0.100000 0
0.660000 0.100000 0
0.680000 0.100000 0
0.700000 0.100000 0
0.720000 0.100000 0
0.740000 0.100000 0
0.760000 0.100000 0
0.780000 0.100000 0
0.800000 0.100000 0
0.820000 0.100000 0
0.840000 0.100000 0
0.860000 0.100000 0
0.880000 0.100000 0
0.900000 0.100000 0
0.920000 0.100000 0
0.940000 0.100000 0
0.960000 0.100000 0
0.980000 0.100000 0
1.000000 0.100000 0
0.000000 0.120000 0
0.020000 0.120000 0
0.040000 0.120000 0
0.060000 0.120000 0
0.080000 0.120000 0
0.100000 0.120000 0
0.120000 0.120000 0
0.140000 0.120000 0
0.160000 0.120000 0
0.180000 0.120000 0
0.200000 0.120000 0
0.220000 0.120000 0
0.240000 0.120000 0
0.260000 0.120000 0
0.280000 0.120000 0
0.300000 0.120000 0
0.320000 0.120000 0
0.340000 0.120000 0
0.360000 0.120000 0
0.380000 0.120000 0
0.400000 0.120000 0
0.420000 0.120000 0
0.440000 0.120000 0
0.460000 0.120000 0
0.480000 0.120000 0
0.500000 0.120000 0
0.520000 0.120000 0
0.540000 0.120000 0
0.560000 0.120000 0
0.580000 0.120000 0
0.600000 0.120000 0
0.620000 0.120000 0
0.640000 0.120000 0
0.660000 0.120000 0
0.680000 0.120000 0
0.700000 0.120000 0
0.720000 0.120000 0
0.740000 0.120000 0
0.760000 0.120000 0
0.780000 0.120000 0
0.800000 0.120000 0
0.820000 0.120000 0
0.840000 0.120000 0
0.860000 0.120000 0
0.880000 0.120000 0
0.900000 0.120000 0
0.920000 0.120000 0
0.940000 0.120000 0
0.960000 0.120000 0
0.980000 0.120000 0
1.000000 0.120000 0
0.000000 0.140000 0
0.020000 0.140000 0
0.040000 0.140000 0
0.060000 0.140000 0
0.080000 0.140000 0
0.100000 0.140000 0
0.120000 0.140000 0
0.140000 0.140000 0
0.160000 0.140000 0
0.180000 0.140000 0
0.200000 0.140000 0
0.220000 0.140000 0
0.240000 0.140000 0
0.260000 0.140000 0
0.280000 0.140000 0
0.300000 0.140000 0
0.320000 0.140000 0
0.340000 0.140000 0
0.360000 0.140000 0
0.380000 0.140000 0
0.400000 0.140000 0
0.420000 0.140000 0
0.440000 0.140000 0
0.460000 0.140000 0
0.480000 0.140000 0
0.500000 0.140000 0
0.520000 0.140000 0
0.540000 0.140000 0
0.560000 0.140000 0
0.580000 0.140000 0
0.600000 0.140000 0
0.620000 0.140000 0
0.640000 0.140000 0
0.660000 0.140000 0
0.680000 0.140000 0
0.700000 0.140000 0
0.720000 0.140000 0
0.740000 0.140000 0
0.760000 0.140000 0
0.780000 0.140000 0
0.800000 0.140000 0
0.820000 0.140000 0
0.840000 0.140000 0
0.860000 0.140000 0
0.880000 0.140000 0
0.900000 0.140000 0
0.920000 0.140000 0
0.940000 0.140000 0
0.960000 0.140000 0
0.980000 0.140000 0
1.000000 0.140000 0
0.000000 0.160000 0
0.020000 0.160000 0
0.040000 0.160000 0
0.060000 0.160000 0
0.080000 0.160000 0
0.100000 0.160000 0
0.120000 0.160000 0
0.140000 0.160000 0
0.160000 0.160000 0
0.180000 0.160000 0
0.200000 0.160000 0
0.220000 0.160000 0
0.240000 0.160000 0
0.260000 0.160000 0
0.280000 0.160000 0
0.300000 0.160000 0
0.320000 0.160000 0
0.340000 0.160000 0
0.360000 0.160000 0
0.380000 0.160000 0
0.400000 0.160000 0
0.420000 0.160000 0
0.440000 0.160000 0
0.460000 0.160000 0
0.480000 0.160000 0
0.500000 0.160000 0
0.520000 0.160000 0
0.540000 0.160000 0
0.560000 0.160000 0
0.580000 0.160000 0
0.600000 0.160000 0
0.620000 0.160000 0
0.640000 0.160000 0
0.660000 0.160000 0
0.680000 0.160000 0
0.700000 0.160000 0
0.720000 0.160000 0
0.740000 0.160000 0
0.760000 0.160000 0
0.780000 0.160000 0
0.800000 0.160000 0
0.820000 0.160000 0
0.840000 0.160000 0
0.860000 0.160000 0
0.880000 0.160000 0
0.900000 0.160000 0
0.920000 0.160000 0
0.940000 0.160000 0
0.960000 0.160000 0
0.980000 0.160000 0
1.000000 0.160000 0
0.000000 0.180000 0
0.020000 0.180000 0
0.040000 0.180000 0
0.060000 0.180000 0
0.080000 0.180000 0
0.100000 0.180000 0
0.120000 0.180000 0
0.140000 0.180000 0
0.160000 0.180000 0
0.180000 0.180000 0
0.200000 0.180000 0
0.220000 0.180000 0
0.240000 0.180000 0
0.260000 0.180000 0
0.280000 0.180000 0
0.300000 0.180000 0
0.320000 0.180000 0
0.340000 0.180000 0
0.360000 0.180000 0
0.380000 0.180000 0
0.400000 0.180000 0
0.420000 0.180000 0
0.440000 0.180000 0
0.460000 0.180000 0
0.480000 0.180000 0
0.500000 0.180000 0
0.520000 0.180000 0
0.540000 0.180000 0
0.560000 0.180000 0
0.580000 0.180000 0
0.600000 0.180000 0
0.620000 0.180000 0
[...]
POINT_DATA 2601 

VECTORS velocity float
0.000000 0.000000 0
0.000234 0.000000 0
0.000216 0.000000 0
0.000187 0.000000 0
0.000161 0.000000 0
0.000136 0.000000 0
0.000105 0.000000 0
0.000079 0.000000 0
0.000049 0.000000 0
0.000019 0.000000 0
-0.000008 0.000000 0
-0.000037 0.000000 0
-0.000066 0.000000 0
-0.000093 0.000000 0
-0.000121 0.000000 0
-0.000147 0.000000 0
-0.000172 0.000000 0
-0.000197 0.000000 0
-0.000220 0.000000 0
-0.000242 0.000000 0
-0.000262 0.000000 0
-0.000282 0.000000 0
-0.000299 0.000000 0
-0.000315 0.000000 0
-0.000329 0.000000 0
-0.000341 0.000000 0
-0.000351 0.000000 0
-0.000359 0.000000 0
-0.000365 0.000000 0
-0.000369 0.000000 0
-0.000371 0.000000 0
-0.000371 0.000000 0
-0.000368 0.000000 0
-0.000364 0.000000 0
-0.000357 0.000000 0
-0.000348 0.000000 0
-0.000337 0.000000 0
-0.000324 0.000000 0
-0.000309 0.000000 0
-0.000292 0.000000 0
-0.000272 0.000000 0
-0.000252 0.000000 0
-0.000229 0.000000 0
-0.000205 0.000000 0
-0.000179 0.000000 0
-0.000152 0.000000 0
-0.000123 0.000000 0
-0.000094 0.000000 0
-0.000063 0.000000 0
-0.000032 0.000000 0
0.000000 0.000000 0
0.000000 0.000306 0
0.000475 0.000620 0
0.000424 0.000618 0
0.000374 0.000609 0
0.000317 0.000604 0
0.000264 0.000592 0
0.000206 0.000581 0
0.000148 0.000568 0
0.000091 0.000552 0
0.000031 0.000537 0
-0.000026 0.000519 0
-0.000083 0.000499 0
-0.000142 0.000481 0
-0.000197 0.000459 0
-0.000251 0.000436 0
-0.000305 0.000415 0
-0.000356 0.000390 0
-0.000405 0.000366 0
-0.000452 0.000342 0
-0.000496 0.000317 0
-0.000537 0.000291 0
-0.000576 0.000266 0
-0.000611 0.000240 0
-0.000642 0.000214 0
-0.000670 0.000188 0
-0.000694 0.000163 0
-0.000714 0.000137 0
-0.000731 0.000112 0
-0.000743 0.000087 0
-0.000751 0.000063 0
-0.000754 0.000039 0
-0.000753 0.000016 0
-0.000748 -0.000006 0
-0.000738 -0.000028 0
-0.000724 -0.000048 0
-0.000706 -0.000068 0
-0.000683 -0.000087 0
-0.000656 -0.000104 0
-0.000625 -0.000121 0
-0.000590 -0.000136 0
-0.000552 -0.000150 0
-0.000509 -0.000163 0
-0.000463 -0.000175 0
-0.000414 -0.000185 0
-0.000362 -0.000194 0
-0.000307 -0.000202 0
-0.000249 -0.000208 0
-0.000190 -0.000213 0
-0.000128 -0.000217 0
-0.000065 -0.000219 0
0.000000 -0.000110 0
0.000000 0.000363 0
0.000474 0.000717 0
0.000418 0.000712 0
0.000366 0.000707 0
0.000309 0.000696 0
0.000250 0.000688 0
0.000194 0.000673 0
0.000133 0.000659 0
0.000074 0.000643 0
0.000014 0.000623 0
-0.000047 0.000604 0
-0.000105 0.000581 0
-0.000163 0.000557 0
-0.000221 0.000533 0
-0.000276 0.000507 0
-0.000330 0.000479 0
-0.000383 0.000452 0
-0.000432 0.000422 0
-0.000479 0.000392 0
-0.000525 0.000363 0
-0.000566 0.000332 0
-0.000604 0.000300 0
-0.000640 0.000269 0
-0.000671 0.000238 0
-0.000699 0.000206 0
-0.000723 0.000175 0
-0.000743 0.000144 0
-0.000758 0.000113 0
-0.000770 0.000083 0
-0.000777 0.000053 0
-0.000780 0.000024 0
-0.000778 -0.000005 0
-0.000772 -0.000032 0
-0.000762 -0.000059 0
-0.000747 -0.000085 0
-0.000727 -0.000109 0
-0.000704 -0.000133 0
-0.000676 -0.000155 0
-0.000643 -0.000175 0
-0.000607 -0.000195 0
-0.000567 -0.000213 0
-0.000523 -0.000229 0
-0.000476 -0.000244 0
-0.000425 -0.000257 0
-0.000371 -0.000269 0
-0.000315 -0.000278 0
-0.000256 -0.000286 0
-0.000194 -0.000293 0
-0.000131 -0.000297 0
-0.000066 -0.000300 0
0.000000 -0.000150 0
0.000000 0.000410 0
0.000468 0.000821 0
0.000413 0.000815 0
0.000357 0.000807 0
0.000298 0.000798 0
0.000239 0.000783 0
0.000178 0.000769 0
0.000116 0.000751 0
0.000054 0.000731 0
-0.000007 0.000711 0
-0.000069 0.000686 0
-0.000130 0.000661 0
-0.000189 0.000635 0
-0.000248 0.000605 0
-0.000305 0.000576 0
-0.000360 0.000545 0
-0.000414 0.000512 0
-0.000464 0.000478 0
-0.000512 0.000444 0
-0.000557 0.000408 0
-0.000600 0.000372 0
-0.000638 0.000336 0
-0.000674 0.000298 0
-0.000705 0.000262 0
-0.000733 0.000225 0
-0.000757 0.000187 0
-0.000776 0.000150 0
-0.000792 0.000114 0
-0.000803 0.000078 0
-0.000809 0.000042 0
-0.000812 0.000007 0
-0.000809 -0.000027 0
-0.000802 -0.000060 0
-0.000791 -0.000092 0
-0.000775 -0.000122 0
-0.000754 -0.000152 0
-0.000729 -0.000180 0
-0.000699 -0.000207 0
-0.000666 -0.000232 0
-0.000628 -0.000256 0
-0.000586 -0.000277 0
-0.000540 -0.000297 0
-0.000491 -0.000315 0
-0.000439 -0.000331 0
-0.000383 -0.000345 0
-0.000325 -0.000357 0
-0.000264 -0.000367 0
-0.000200 -0.000375 0
-0.000135 -0.000380 0
-0.000068 -0.000384 0
0.000000 -0.000192 0
0.000000 0.000461 0
0.000467 0.000920 0
0.000405 0.000917 0
0.000348 0.000908 0
0.000286 0.000897 0
0.000223 0.000884 0
0.000162 0.000866 0
0.000096 0.000848 0
0.000032 0.000825 0
-0.000031 0.000800 0
-0.000096 0.000774 0
-0.000158 0.000744 0
-0.000219 0.000713 0
-0.000280 0.000680 0
-0.000338 0.000645 0
-0.000395 0.000609 0
-0.000449 0.000572 0
-0.000501 0.000533 0
-0.000550 0.000494 0
-0.000596 0.000453 0
-0.000639 0.000412 0
-0.000678 0.000370 0
-0.000713 0.000327 0
-0.000745 0.000285 0
-0.000773 0.000242 0
-0.000797 0.000199 0
-0.000816 0.000156 0
-0.000831 0.000114 0
-0.000842 0.000072 0
-0.000848 0.000030 0
-0.000849 -0.000010 0
-0.000846 -0.000050 0
-0.000838 -0.000089 0
-0.000825 -0.000126 0
-0.000807 -0.000162 0
-0.000785 -0.000197 0
-0.000759 -0.000230 0
-0.000728 -0.000262 0
-0.000692 -0.000291 0
-0.000653 -0.000319 0
-0.000609 -0.000345 0
-0.000561 -0.000368 0
-0.000510 -0.000390 0
-0.000455 -0.000409 0
-0.000397 -0.000425 0
-0.000337 -0.000439 0
-0.000273 -0.000451 0
-0.000207 -0.000460 0
-0.000140 -0.000467 0
-0.000071 -0.000471 0
0.000000 -0.000236 0
0.000000 0.000516 0
0.000461 0.001028 0
0.000400 0.001020 0
0.000336 0.001012 0
0.000274 0.000999 0
0.000207 0.000983 0
0.000141 0.000965 0
0.000075 0.000942 0
0.000007 0.000919 0
-0.000058 0.000891 0
-0.000125 0.000861 0
-0.000190 0.000829 0
-0.000253 0.000793 0
-0.000316 0.000756 0
-0.000376 0.000718 0
-0.000434 0.000676 0
-0.000490 0.000634 0
-0.000543 0.000590 0
-0.000593 0.000544 0
-0.000640 0.000498 0
-0.000683 0.000451 0
-0.000723 0.000403 0
-0.000759 0.000355 0
-0.000791 0.000307 0
-0.000819 0.000258 0
-0.000842 0.000209 0
-0.000862 0.000160 0
-0.000876 0.000112 0
-0.000886 0.000064 0
-0.000892 0.000017 0
-0.000892 -0.000029 0
-0.000888 -0.000075 0
-0.000878 -0.000119 0
-0.000864 -0.000162 0
-0.000846 -0.000204 0
-0.000822 -0.000244 0
-0.000794 -0.000282 0
-0.000761 -0.000319 0
-0.000723 -0.000353 0
-0.000681 -0.000385 0
-0.000635 -0.000415 0
-0.000585 -0.000442 0
-0.000532 -0.000467 0
-0.000474 -0.000489 0
-0.000414 -0.000508 0
-0.000351 -0.000525 0
-0.000284 -0.000538 0
-0.000216 -0.000549 0
-0.000145 -0.000556 0
-0.000073 -0.000561 0
0.000000 -0.000281 0
0.000000 0.000567 0
0.000457 0.001135 0
0.000391 0.001130 0
0.000326 0.001119 0
0.000258 0.001106 0
0.000189 0.001088 0
0.000120 0.001066 0
0.000050 0.001042 0
-0.000020 0.001014 0
-0.000089 0.000983 0
-0.000158 0.000949 0
-0.000226 0.000913 0
-0.000292 0.000874 0
-0.000356 0.000833 0
-0.000418 0.000789 0
-0.000478 0.000744 0
-0.000535 0.000696 0
-0.000590 0.000647 0
-0.000642 0.000596 0
-0.000689 0.000544 0
-0.000734 0.000491 0
-0.000774 0.000438 0
-0.000810 0.000383 0
-0.000843 0.000328 0
-0.000871 0.000273 0
-0.000894 0.000218 0
-0.000913 0.000163 0
-0.000928 0.000109 0
-0.000937 0.000055 0
-0.000941 0.000002 0
-0.000941 -0.000051 0
-0.000936 -0.000102 0
-0.000925 -0.000152 0
-0.000910 -0.000201 0
-0.000889 -0.000248 0
-0.000864 -0.000294 0
-0.000833 -0.000337 0
-0.000798 -0.000378 0
-0.000759 -0.000417 0
-0.000715 -0.000454 0
-0.000666 -0.000488 0
-0.000613 -0.000519 0
-0.000557 -0.000547 0
-0.000497 -0.000573 0
-0.000433 -0.000595 0
-0.000367 -0.000614 0
-0.000297 -0.000629 0
-0.000226 -0.000641 0
-0.000152 -0.000650 0
-0.000077 -0.000655 0
0.000000 -0.000329 0
0.000000 0.000626 0
0.000453 0.001246 0
0.000383 0.001239 0
0.000312 0.001229 0
0.000243 0.001213 0
0.000168 0.001195 0
0.000096 0.001171 0
0.000023 0.001144 0
-0.000051 0.001114 0
-0.000123 0.001079 0
-0.000195 0.001042 0
-0.000266 0.001001 0
-0.000334 0.000957 0
-0.000401 0.000911 0
-0.000466 0.000862 0
-0.000528 0.000811 0
-0.000587 0.000759 0
-0.000643 0.000704 0
-0.000696 0.000648 0
-0.000745 0.000590 0
-0.000790 0.000531 0
-0.000831 0.000471 0
-0.000868 0.000411 0
-0.000901 0.000350 0
-0.000929 0.000289 0
-0.000953 0.000227 0
-0.000971 0.000166 0
-0.000985 0.000105 0
-0.000994 0.000044 0
-0.000998 -0.000015 0
-0.000996 -0.000074 0
-0.000989 -0.000132 0
-0.000978 -0.000188 0
-0.000960 -0.000242 0
-0.000938 -0.000295 0
-0.000911 -0.000346 0
-0.000878 -0.000395 0
-0.000841 -0.000441 0
-0.000799 -0.000485 0
-0.000752 -0.000526 0
-0.000701 -0.000565 0
-0.000645 -0.000600 0
-0.000585 -0.000632 0
-0.000522 -0.000660 0
-0.000455 -0.000685 0
-0.000385 -0.000707 0
-0.000312 -0.000724 0
-0.000237 -0.000738 0
-0.000159 -0.000748 0
-0.000080 -0.000754 0
0.000000 -0.000378 0
0.000000 0.000682 0
0.000446 0.001363 0
0.000375 0.001354 0
0.000298 0.001342 0
0.000224 0.001325 0
0.000147 0.001303 0
0.000068 0.001278 0
-0.000007 0.001248 0
-0.000085 0.001214 0
-0.000162 0.001177 0
-0.000236 0.001135 0
-0.000310 0.001091 0
-0.000382 0.001043 0
-0.000451 0.000991 0
-0.000518 0.000938 0
-0.000582 0.000881 0
-0.000643 0.000823 0
-0.000701 0.000762 0
-0.000756 0.000700 0
-0.000806 0.000636 0
-0.000852 0.000571 0
-0.000895 0.000505 0
-0.000932 0.000438 0
-0.000965 0.000371 0
-0.000994 0.000303 0
-0.001017 0.000235 0
-0.001036 0.000167 0
-0.001049 0.000100 0
-0.001057 0.000033 0
-0.001060 -0.000034 0
-0.001057 -0.000099 0
-0.001049 -0.000163 0
-0.001036 -0.000225 0
-0.001017 -0.000286 0
-0.000993 -0.000345 0
-0.000964 -0.000402 0
-0.000929 -0.000456 0
-0.000889 -0.000508 0
-0.000844 -0.000557 0
-0.000794 -0.000603 0
-0.000740 -0.000645 0
-0.000681 -0.000685 0
-0.000618 -0.000720 0
-0.000550 -0.000752 0
-0.000480 -0.000781 0
-0.000406 -0.000805 0
-0.000329 -0.000824 0
-0.000249 -0.000840 0
-0.000168 -0.000851 0
-0.000085 -0.000858 0
0.000000 -0.000430 0
0.000000 0.000741 0
0.000442 0.001481 0
0.000363 0.001473 0
0.000284 0.001459 0
0.000203 0.001441 0
0.000122 0.001418 0
0.000040 0.001389 0
-0.000042 0.001356 0
-0.000122 0.001318 0
-0.000203 0.001277 0
-0.000281 0.001232 0
-0.000358 0.001182 0
-0.000434 0.001130 0
-0.000506 0.001074 0
-0.000576 0.001014 0
-0.000643 0.000953 0
-0.000706 0.000889 0
-0.000766 0.000822 0
-0.000822 0.000753 0
-0.000874 0.000683 0
-0.000921 0.000611 0
-0.000964 0.000539 0
-0.001003 0.000465 0
-0.001036 0.000391 0
-0.001065 0.000316 0
-0.001089 0.000242 0
-0.001107 0.000167 0
-0.001120 0.000093 0
-0.001127 0.000019 0
-0.001129 -0.000054 0
-0.001125 -0.000126 0
-0.001116 -0.000196 0
-0.001101 -0.000265 0
-0.001080 -0.000332 0
-0.001054 -0.000397 0
-0.001022 -0.000460 0
-0.000985 -0.000520 0
-0.000942 -0.000578 0
-0.000894 -0.000632 0
-0.000841 -0.000683 0
-0.000783 -0.000730 0
-0.000720 -0.000774 0
-0.000653 -0.000814 0
-0.000582 -0.000849 0
-0.000507 -0.000881 0
-0.000429 -0.000907 0
-0.000348 -0.000929 0
-0.000264 -0.000947 0
-0.000177 -0.000959 0
-0.000089 -0.000967 0
0.000000 -0.000485 0
0.000000 0.000805 0
0.000435 0.001605 0
0.000353 0.001595 0
0.000266 0.001581 0
0.000182 0.001560 0
0.000094 0.001535 0
0.000007 0.001504 0
-0.000078 0.001468 0
-0.000164 0.001428 0
-0.000249 0.001382 0
-0.000331 0.001332 0
-0.000412 0.001278 0
-0.000491 0.001219 0
-0.000567 0.001158 0
-0.000639 0.001093 0
-0.000709 0.001025 0
-0.000775 0.000955 0
-0.000836 0.000882 0
-0.000894 0.000807 0
-0.000948 0.000731 0
-0.000997 0.000653 0
-0.001041 0.000573 0
-0.001080 0.000492 0
-0.001115 0.000411 0
-0.001143 0.000329 0
-0.001167 0.000248 0
-0.001185 0.000166 0
-0.001197 0.000085 0
-0.001204 0.000004 0
-0.001205 -0.000076 0
-0.001200 -0.000155 0
-0.001189 -0.000232 0
-0.001172 -0.000308 0
-0.001150 -0.000381 0
-0.001121 -0.000453 0
-0.001087 -0.000522 0
-0.001047 -0.000588 0
-0.001001 -0.000651 0
-0.000950 -0.000711 0
-0.000893 -0.000768 0
-0.000831 -0.000820 0
-0.000764 -0.000868 0
-0.000693 -0.000912 0
-0.000617 -0.000952 0
-0.000538 -0.000986 0
-0.000455 -0.001016 0
-0.000368 -0.001040 0
-0.000279 -0.001059 0
-0.000188 -0.001073 0
-0.000095 -0.001081 0
0.000000 -0.000542 0
0.000000 0.000868 0
0.000427 0.001734 0
0.000340 0.001724 0
0.000248 0.001707 0
0.000156 0.001686 0
0.000066 0.001656 0
-0.000028 0.001623 0
-0.000119 0.001584 0
-0.000209 0.001539 0
-0.000299 0.001490 0
-0.000386 0.001435 0
-0.000471 0.001376 0
-0.000554 0.001313 0
-0.000633 0.001245 0
-0.000709 0.001174 0
-0.000781 0.001100 0
-0.000850 0.001023 0
-0.000914 0.000944 0
-0.000974 0.000862 0
-0.001029 0.000779 0
-0.001079 0.000694 0
-0.001125 0.000607 0
-0.001165 0.000519 0
-0.001200 0.000431 0
-0.001229 0.000342 0
-0.001252 0.000253 0
-0.001270 0.000164 0
-0.001282 0.000075 0
-0.001288 -0.000013 0
-0.001288 -0.000100 0
-0.001282 -0.000186 0
-0.001269 -0.000270 0
-0.001251 -0.000353 0
-0.001226 -0.000434 0
-0.001195 -0.000512 0
-0.001158 -0.000587 0
-0.001115 -0.000660 0
-0.001065 -0.000729 0
-0.001011 -0.000795 0
-0.000950 -0.000857 0
-0.000884 -0.000914 0
-0.000813 -0.000968 0
-0.000737 -0.001016 0
-0.000656 -0.001059 0
-0.000572 -0.001097 0
-0.000483 -0.001130 0
-0.000391 -0.001157 0
-0.000297 -0.001178 0
-0.000199 -0.001193 0
-0.000100 -0.001203 0
0.000000 -0.000603 0
0.000000 0.000936 0
0.000421 0.001868 0
0.000325 0.001858 0
0.000228 0.001840 0
0.000130 0.001816 0
0.000032 0.001785 0
-0.000066 0.001747 0
-0.000163 0.001704 0
-0.000258 0.001655 0
-0.000353 0.001601 0
-0.000446 0.001541 0
-0.000534 0.001477 0
-0.000621 0.001408 0
-0.000705 0.001335 0
-0.000784 0.001258 0
-0.000860 0.001177 0
-0.000931 0.001094 0
-0.000998 0.001007 0
-0.001060 0.000919 0
-0.001117 0.000828 0
-0.001169 0.000735 0
-0.001216 0.000641 0
-0.001257 0.000546 0
-0.001292 0.000450 0
-0.001322 0.000354 0
-0.001345 0.000257 0
-0.001363 0.000160 0
-0.001374 0.000064 0
-0.001380 -0.000031 0
-0.001378 -0.000126 0
-0.001371 -0.000219 0
-0.001357 -0.000311 0
-0.001336 -0.000401 0
-0.001309 -0.000489 0
-0.001275 -0.000574 0
-0.001235 -0.000657 0
-0.001189 -0.000736 0
-0.001136 -0.000812 0
-0.001077 -0.000883 0
-0.001013 -0.000951 0
-0.000942 -0.001014 0
-0.000866 -0.001073 0
-0.000785 -0.001126 0
-0.000699 -0.001173 0
-0.000609 -0.001215 0
-0.000514 -0.001251 0
-0.000417 -0.001281 0
-0.000316 -0.001304 0
-0.000212 -0.001321 0
-0.000107 -0.001331 0
0.000000 -0.000667 0
0.000000 0.001007 0
0.000412 0.002009 0
0.000311 0.001996 0
0.000206 0.001978 0
0.000102 0.001951 0
-0.000003 0.001917 0
-0.000108 0.001877 0
-0.000211 0.001830 0
-0.000313 0.001777 0
-0.000413 0.001717 0
-0.000510 0.001652 0
-0.000605 0.001582 0
-0.000695 0.001507 0
-0.000783 0.001427 0
-0.000866 0.001344 0
-0.000945 0.001256 0
-0.001020 0.001166 0
-0.001089 0.001073 0
-0.001153 0.000976 0
-0.001213 0.000878 0
-0.001266 0.000778 0
-0.001314 0.000676 0
-0.001356 0.000573 0
-0.001392 0.000469 0
-0.001422 0.000365 0
-0.001446 0.000260 0
-0.001463 0.000156 0
-0.001474 0.000052 0
-0.001479 -0.000052 0
-0.001476 -0.000154 0
-0.001467 -0.000255 0
-0.001451 -0.000355 0
-0.001429 -0.000452 0
-0.001399 -0.000548 0
-0.001363 -0.000640 0
-0.001320 -0.000730 0
-0.001270 -0.000816 0
-0.001213 -0.000899 0
-0.001150 -0.000977 0
-0.001081 -0.001051 0
-0.001006 -0.001120 0
-0.000925 -0.001183 0
-0.000838 -0.001242 0
-0.000746 -0.001294 0
-0.000650 -0.001340 0
-0.000549 -0.001379 0
-0.000444 -0.001411 0
-0.000337 -0.001437 0
-0.000226 -0.001455 0
-0.000114 -0.001466 0
0.000000 -0.000735 0
0.000000 0.001080 0
0.000404 0.002157 0
0.000294 0.002144 0
0.000183 0.002122 0
0.000069 0.002093 0
-0.000041 0.002056 0
-0.000154 0.002012 0
-0.000264 0.001961 0
-0.000372 0.001903 0
-0.000478 0.001839 0
-0.000581 0.001768 0
-0.000680 0.001692 0
-0.000776 0.001610 0
-0.000868 0.001524 0
-0.000956 0.001433 0
-0.001038 0.001338 0
-0.001116 0.001240 0
-0.001188 0.001139 0
-0.001255 0.001035 0
-0.001316 0.000929 0
-0.001371 0.000821 0
-0.001421 0.000711 0
-0.001464 0.000600 0
-0.001501 0.000488 0
-0.001531 0.000376 0
-0.001555 0.000263 0
-0.001572 0.000150 0
-0.001582 0.000038 0
-0.001586 -0.000074 0
-0.001582 -0.000185 0
-0.001572 -0.000294 0
-0.001554 -0.000401 0
-0.001529 -0.000507 0
-0.001497 -0.000610 0
-0.001458 -0.000710 0
-0.001411 -0.000807 0
-0.001358 -0.000901 0
-0.001297 -0.000991 0
-0.001230 -0.001076 0
-0.001156 -0.001156 0
-0.001075 -0.001231 0
-0.000988 -0.001301 0
-0.000896 -0.001364 0
-0.000797 -0.001421 0
-0.000694 -0.001471 0
-0.000587 -0.001514 0
-0.000475 -0.001550 0
-0.000360 -0.001578 0
-0.000242 -0.001598 0
-0.000122 -0.001610 0
0.000000 -0.000807 0
0.000000 0.001158 0
0.000395 0.002311 0
0.000276 0.002297 0
0.000156 0.002274 0
0.000035 0.002243 0
-0.000085 0.002203 0
-0.000203 0.002154 0
-0.000321 0.002099 0
-0.000436 0.002035 0
-0.000548 0.001965 0
-0.000658 0.001888 0
-0.000763 0.001805 0
-0.000864 0.001717 0
-0.000961 0.001624 0
-0.001052 0.001526 0
-0.001138 0.001423 0
-0.001220 0.001317 0
-0.001295 0.001208 0
-0.001364 0.001096 0
-0.001427 0.000981 0
-0.001485 0.000865 0
-0.001535 0.000747 0
-0.001580 0.000627 0
-0.001617 0.000507 0
-0.001648 0.000386 0
-0.001672 0.000265 0
-0.001689 0.000143 0
-0.001699 0.000022 0
-0.001701 -0.000098 0
-0.001697 -0.000217 0
-0.001684 -0.000335 0
-0.001665 -0.000451 0
-0.001638 -0.000564 0
-0.001603 -0.000676 0
-0.001561 -0.000784 0
-0.001511 -0.000889 0
-0.001453 -0.000991 0
-0.001389 -0.001088 0
-0.001316 -0.001180 0
-0.001237 -0.001268 0
-0.001151 -0.001349 0
-0.001058 -0.001425 0
-0.000959 -0.001494 0
-0.000854 -0.001556 0
-0.000743 -0.001611 0
-0.000628 -0.001658 0
-0.000508 -0.001697 0
-0.000385 -0.001728 0
-0.000259 -0.001750 0
-0.000130 -0.001763 0
0.000000 -0.000884 0
0.000000 0.001240 0
0.000384 0.002475 0
0.000257 0.002459 0
0.000127 0.002434 0
-0.000002 0.002399 0
-0.000131 0.002356 0
-0.000258 0.002304 0
-0.000383 0.002243 0
-0.000506 0.002174 0
-0.000625 0.002097 0
-0.000741 0.002014 0
-0.000852 0.001924 0
-0.000959 0.001828 0
-0.001060 0.001727 0
-0.001157 0.001621 0
-0.001247 0.001511 0
-0.001331 0.001396 0
-0.001410 0.001279 0
-0.001482 0.001158 0
-0.001547 0.001035 0
-0.001606 0.000910 0
-0.001659 0.000783 0
-0.001704 0.000654 0
-0.001742 0.000525 0
-0.001774 0.000395 0
-0.001798 0.000265 0
-0.001814 0.000135 0
-0.001824 0.000006 0
-0.001825 -0.000123 0
-0.001819 -0.000251 0
-0.001806 -0.000378 0
-0.001784 -0.000503 0
-0.001755 -0.000625 0
-0.001717 -0.000745 0
-0.001672 -0.000862 0
-0.001618 -0.000976 0
-0.001557 -0.001085 0
-0.001487 -0.001190 0
-0.001410 -0.001291 0
-0.001325 -0.001386 0
-0.001233 -0.001474 0
-0.001134 -0.001557 0
-0.001027 -0.001632 0
-0.000915 -0.001700 0
-0.000797 -0.001760 0
-0.000673 -0.001811 0
-0.000545 -0.001854 0
-0.000413 -0.001887 0
-0.000277 -0.001911 0
-0.000139 -0.001926 0
0.000000 -0.000965 0
0.000000 0.001326 0
0.000373 0.002647 0
0.000235 0.002630 0
0.000097 0.002602 0
-0.000043 0.002565 0
-0.000181 0.002517 0
-0.000317 0.002460 0
-0.000451 0.002394 0
-0.000582 0.002319 0
-0.000709 0.002236 0
-0.000831 0.002146 0
-0.000949 0.002048 0
-0.001061 0.001945 0
-0.001168 0.001835 0
-0.001269 0.001720 0
-0.001364 0.001601 0
-0.001452 0.001478 0
-0.001534 0.001352 0
-0.001609 0.001222 0
-0.001676 0.001090 0
-0.001737 0.000955 0
-0.001791 0.000819 0
-0.001837 0.000682 0
-0.001876 0.000543 0
-0.001908 0.000404 0
-0.001932 0.000265 0
-0.001949 0.000126 0
-0.001958 -0.000013 0
-0.001958 -0.000151 0
-0.001951 -0.000288 0
-0.001936 -0.000424 0
-0.001913 -0.000558 0
-0.001881 -0.000689 0
-0.001840 -0.000818 0
-0.001792 -0.000944 0
-0.001734 -0.001067 0
-0.001669 -0.001185 0
-0.001595 -0.001299 0
-0.001512 -0.001407 0
-0.001421 -0.001510 0
-0.001322 -0.001607 0
-0.001216 -0.001696 0
-0.001102 -0.001778 0
-0.000982 -0.001852 0
-0.000855 -0.001917 0
-0.000722 -0.001973 0
-0.000585 -0.002020 0
-0.000443 -0.002056 0
-0.000298 -0.002083 0
-0.000150 -0.002099 0
0.000000 -0.001052 0
0.000000 0.001418 0
0.000361 0.002829 0
0.000211 0.002811 0
0.000063 0.002781 0
-0.000088 0.002740 0
-0.000236 0.002688 0
-0.000381 0.002625 0
-0.000525 0.002553 0
-0.000664 0.002471 0
-0.000799 0.002381 0
-0.000929 0.002283 0
-0.001054 0.002178 0
-0.001172 0.002066 0
-0.001285 0.001948 0
-0.001391 0.001824 0
-0.001490 0.001695 0
-0.001582 0.001563 0
-0.001666 0.001427 0
-0.001744 0.001288 0
-0.001815 0.001146 0
-0.001877 0.001002 0