# vtk DataFile Version 2.0
generated by CFD-lab course output (written by Tobias Neckel) 
ASCII

DATASET STRUCTURED_GRID
DIMENSIONS  51 51 1 
POINTS 2601 float

0.000000 0.000000 0
0.020000 0.000000 0
0.040000 0.000000 0
0.060000 0.000000 0
0.080000 0.000000 0
0.100000 0.000000 0
0.120000 0.000000 0
0.140000 0.000000 0
0.160000 0.000000 0
0.180000 0.000000 0
0.200000 0.000000 0
0.220000 0.000000 0
0.240000 0.000000 0
0.260000 0.000000 0
0.280000 0.000000 0
0.300000 0.000000 0
0.320000 0.000000 0
0.340000 0.000000 0
0.360000 0.000000 0
0.380000 0.000000 0
0.400000 0.000000 0
0.420000 0.000000 0
0.440000 0.000000 0
0.460000 0.000000 0
0.480000 0.000000 0
0.500000 0.000000 0
0.520000 0.000000 0
0.540000 0.000000 0
0.560000 0.000000 0
0.580000 0.000000 0
0.600000 0.000000 0
0.620000 0.000000 0
0.640000 0.000000 0
0.660000 0.000000 0
0.680000 0.000000 0
0.700000 0.000000 0
0.720000 0.000000 0
0.740000 0.000000 0
0.760000 0.000000 0
0.780000 0.000000 0
0.800000 0.000000 0
0.820000 0.000000 0
0.840000 0.000000 0
0.860000 0.000000 0
0.880000 0.000000 0
0.900000 0.000000 0
0.920000 0.000000 0
0.940000 0.000000 0
0.960000 0.000000 0
0.980000 0.000000 0
1.000000 0.000000 0
0.000000 0.020000 0
0.020000 0.020000 0
0.040000 0.020000 0
0.060000 0.020000 0
0.080000 0.020000 0
0.100000 0.020000 0
0.120000 0.020000 0
0.140000 0.020000 0
0.160000 0.020000 0
0.180000 0.020000 0
0.200000 0.020000 0
0.220000 0.020000 0
0.240000 0.020000 0
0.260000 0.020000 0
0.280000 0.020000 0
0.300000 0.020000 0
0.320000 0.020000 0
0.340000 0.020000 0
0.360000 0.020000 0
0.380000 0.020000 0
0.400000 0.020000 0
0.420000 0.020000 0
0.440000 0.020000 0
0.460000 0.020000 0
0.480000 0.020000 0
0.500000 0.020000 0
0.520000 0.020000 0
0.540000 0.020000 0
0.560000 0.020000 0
0.580000 0.020000 0
0.600000 0.020000 0
0.620000 0.020000 0
0.640000 0.020000 0
0.660000 0.020000 0
0.680000 0.020000 0
0.700000 0.020000 0
0.720000 0.020000 0
0.740000 0.020000 0
0.760000 0.020000 0
0.780000 0.020000 0
0.800000 0.020000 0
0.820000 0.020000 0
0.840000 0.020000 0
0.860000 0.020000 0
0.880000 0.020000 0
0.900000 0.020000 0
0.920000 0.020000 0
0.940000 0.020000 0
0.960000 0.020000 0
0.980000 0.020000 0
1.000000 0.020000 0
0.000000 0.040000 0
0.020000 0.040000 0
0.040000 0.040000 0
0.060000 0.040000 0
0.080000 0.040000 0
0.100000 0.040000 0
0.120000 0.040000 0
0.140000 0.040000 0
0.160000 0.040000 0
0.180000 0.040000 0
0.200000 0.040000 0
0.220000 0.040000 0
0.240000 0.040000 0
0.260000 0.040000 0
0.280000 0.040000 0
0.300000 0.040000 0
0.320000 0.040000 0
0.340000 0.040000 0
0.360000 0.040000 0
0.380000 0.040000 0
0.400000 0.040000 0
0.420000 0.040000 0
0.440000 0.040000 0
0.460000 0.040000 0
0.480000 0.040000 0
0.500000 0.040000 0
0.520000 0.040000 0
0.540000 0.040000 0
0.560000 0.040000 0
0.580000 0.040000 0
0.600000 0.040000 0
0.620000 0.040000 0
0.640000 0.040000 0
0.660000 0.040000 0
0.680000 0.040000 0
0.700000 0.040000 0
0.720000 0.040000 0
0.740000 0.040000 0
0.760000 0.040000 0
0.780000 0.040000 0
0.800000 0.040000 0
0.820000 0.040000 0
0.840000 0.040000 0
0.860000 0.040000 0
0.880000 0.040000 0
0.900000 0.040000 0
0.920000 0.040000 0
0.940000 0.040000 0
0.960000 0.040000 0
0.980000 0.040000 0
1.000000 0.040000 0
0.000000 0.060000 0
0.020000 0.060000 0
0.040000 0.060000 0
0.060000 0.060000 0
0.080000 0.060000 0
0.100000 0.060000 0
0.120000 0.060000 0
0.140000 0.060000 0
0.160000 0.060000 0
0.180000 0.060000 0
0.200000 0.060000 0
0.220000 0.060000 0
0.240000 0.060000 0
0.260000 0.060000 0
0.280000 0.060000 0
0.300000 0.060000 0
0.320000 0.060000 0
0.340000 0.060000 0
0.360000 0.060000 0
0.380000 0.060000 0
0.400000 0.060000 0
0.420000 0.060000 0
0.440000 0.060000 0
0.460000 0.060000 0
0.480000 0.060000 0
0.500000 0.060000 0
0.520000 0.060000 0
0.540000 0.060000 0
0.560000 0.060000 0
0.580000 0.060000 0
0.600000 0.060000 0
0.620000 0.060000 0
0.640000 0.060000 0
0.660000 0.060000 0
0.680000 0.060000 0
0.700000 0.060000 0
0.720000 0.060000 0
0.740000 0.060000 0
0.760000 0.060000 0
0.780000 0.060000 0
0.800000 0.060000 0
0.820000 0.060000 0
0.840000 0.060000 0
0.860000 0.060000 0
0.880000 0.060000 0
0.900000 0.060000 0
0.920000 0.060000 0
0.940000 0.060000 0
0.960000 0.060000 0
0.980000 0.060000 0
1.000000 0.060000 0
0.000000 0.080000 0
0.020000 0.080000 0
0.040000 0.080000 0
0.060000 0.080000 0
0.080000 0.080000 0
0.100000 0.080000 0
0.120000 0.080000 0
0.140000 0.080000 0
0.160000 0.080000 0
0.180000 0.080000 0
0.200000 0.080000 0
0.220000 0.080000 0
0.240000 0.080000 0
0.260000 0.080000 0
0.280000 0.080000 0
0.300000 0.080000 0
0.320000 0.080000 0
0.340000 0.080000 0
0.360000 0.080000 0
0.380000 0.080000 0
0.400000 0.080000 0
0.420000 0.080000 0
0.440000 0.080000 0
0.460000 0.080000 0
0.480000 0.080000 0
0.500000 0.080000 0
0.520000 0.080000 0
0.540000 0.080000 0
0.560000 0.080000 0
0.580000 0.080000 0
0.600000 0.080000 0
0.620000 0.080000 0
0.640000 0.080000 0
0.660000 0.080000 0
0.680000 0.080000 0
0.700000 0.080000 0
0.720000 0.080000 0
0.740000 0.080000 0
0.760000 0.080000 0
0.780000 0.080000 0
0.800000 0.080000 0
0.820000 0.080000 0
0.840000 0.080000 0
0.860000 0.080000 0
0.880000 0.080000 0
0.900000 0.080000 0
0.920000 0.080000 0
0.940000 0.080000 0
0.960000 0.080000 0
0.980000 0.080000 0
1.000000 0.080000 0
0.000000 0.100000 0
0.020000 0.100000 0
0.040000 0.100000 0
0.060000 0.100000 0
0.080000 0.100000 0
0.100000 0.100000 0
0.120000 0.100000 0
0.140000 0.100000 0
0.160000 0.100000 0
0.180000 0.100000 0
0.200000 0.100000 0
0.220000 0.100000 0
0.240000 0.100000 0
0.260000 0.100000 0
0.280000 0.100000 0
0.300000 0.100000 0
0.320000 0.100000 0
0.340000 0.100000 0
0.360000 0.100000 0
0.380000 0.100000 0
0.400000 0.100000 0
0.420000 0.100000 0
0.440000 0.100000 0
0.460000 0.100000 0
0.480000 0.100000 0
0.500000 0.100000 0
0.520000 0.100000 0
0.540000 0.100000 0
0.560000 0.100000 0
0.580000 0.100000 0
0.600000 0.100000 0
0.620000 0.100000 0
0.640000 0.100000 0
0.660000 0.100000 0
0.680000 0.100000 0
0.700000 0.100000 0
0.720000 0.100000 0
0.740000 0.100000 0
0.760000 0.100000 0
0.780000 0.100000 0
0.800000 0.100000 0
0.820000 0.100000 0
0.840000 0.100000 0
0.860000 0.100000 0
0.880000 0.100000 0
0.900000 0.100000 0
0.920000 0.100000 0
0.940000 0.100000 0
0.960000 0.100000 0
0.980000 0.100000 0
1.000000 0.100000 0
0.000000 0.120000 0
0.020000 0.120000 0
0.040000 0.120000 0
0.060000 0.120000 0
0.080000 0.120000 0
0.100000 0.120000 0
0.120000 0.120000 0
0.140000 0.120000 0
0.160000 0.120000 0
0.180000 0.120000 0
0.200000 0.120000 0
0.220000 0.120000 0
0.240000 0.120000 0
0.260000 0.120000 0
0.280000 0.120000 0
0.300000 0.120000 0
0.320000 0.120000 0
0.340000 0.120000 0
0.360000 0.120000 0
0.380000 0.120000 0
0.400000 0.120000 0
0.420000 0.120000 0
0.440000 0.120000 0
0.460000 0.120000 0
0.480000 0.120000 0
0.500000 0.120000 0
0.520000 0.120000 0
0.540000 0.120000 0
0.560000 0.120000 0
0.580000 0.120000 0
0.600000 0.120000 0
0.620000 0.120000 0
0.640000 0.120000 0
0.660000 0.120000 0
0.680000 0.120000 0
0.700000 0.120000 0
0.720000 0.120000 0
0.740000 0.120000 0
0.760000 0.120000 0
0.780000 0.120000 0
0.800000 0.120000 0
0.820000 0.120000 0
0.840000 0.120000 0
0.860000 0.120000 0
0.880000 0.120000 0
0.900000 0.120000 0
0.920000 0.120000 0
0.940000 0.120000 0
0.960000 0.120000 0
0.980000 0.120000 0
1.000000 0.120000 0
0.000000 0.140000 0
0.020000 0.140000 0
0.040000 0.140000 0
0.060000 0.140000 0
0.080000 0.140000 0
0.100000 0.140000 0
0.120000 0.140000 0
0.140000 0.140000 0
0.160000 0.140000 0
0.180000 0.140000 0
0.200000 0.140000 0
0.220000 0.140000 0
0.240000 0.140000 0
0.260000 0.140000 0
0.280000 0.140000 0
0.300000 0.140000 0
0.320000 0.140000 0
0.340000 0.140000 0
0.360000 0.140000 0
0.380000 0.140000 0
0.400000 0.140000 0
0.420000 0.140000 0
0.440000 0.140000 0
0.460000 0.140000 0
0.480000 0.140000 0
0.500000 0.140000 0
0.520000 0.140000 0
0.540000 0.140000 0
0.560000 0.140000 0
0.580000 0.140000 0
0.600000 0.140000 0
0.620000 0.140000 0
0.640000 0.140000 0
0.660000 0.140000 0
0.680000 0.140000 0
0.700000 0.140000 0
0.720000 0.140000 0
0.740000 0.140000 0
0.760000 0.140000 0
0.780000 0.140000 0
0.800000 0.140000 0
0.820000 0.140000 0
0.840000 0.140000 0
0.860000 0.140000 0
0.880000 0.140000 0
0.900000 0.140000 0
0.920000 0.140000 0
0.940000 0.140000 0
0.960000 0.140000 0
0.980000 0.140000 0
1.000000 0.140000 0
0.000000 0.160000 0
0.020000 0.160000 0
0.040000 0.160000 0
0.060000 0.160000 0
0.080000 0.160000 0
0.100000 0.160000 0
0.120000 0.160000 0
0.140000 0.160000 0
0.160000 0.160000 0
0.180000 0.160000 0
0.200000 0.160000 0
0.220000 0.160000 0
0.240000 0.160000 0
0.260000 0.160000 0
0.280000 0.160000 0
0.300000 0.160000 0
0.320000 0.160000 0
0.340000 0.160000 0
0.360000 0.160000 0
0.380000 0.160000 0
0.400000 0.160000 0
0.420000 0.160000 0
0.440000 0.160000 0
0.460000 0.160000 0
0.480000 0.160000 0
0.500000 0.160000 0
0.520000 0.160000 0
0.540000 0.160000 0
0.560000 0.160000 0
0.580000 0.160000 0
0.600000 0.160000 0
0.620000 0.160000 0
0.640000 0.160000 0
0.660000 0.160000 0
0.680000 0.160000 0
0.700000 0.160000 0
0.720000 0.160000 0
0.740000 0.160000 0
0.760000 0.160000 0
0.780000 0.160000 0
0.800000 0.160000 0
0.820000 0.160000 0
0.840000 0.160000 0
0.860000 0.160000 0
0.880000 0.160000 0
0.900000 0.160000 0
0.920000 0.160000 0
0.940000 0.160000 0
0.960000 0.160000 0
0.980000 0.160000 0
1.000000 0.160000 0
0.000000 0.180000 0
0.020000 0.180000 0
0.040000 0.180000 0
0.060000 0.180000 0
0.080000 0.180000 0
0.100000 0.180000 0
0.120000 0.180000 0
0.140000 0.180000 0
0.160000 0.180000 0
0.180000 0.180000 0
0.200000 0.180000 0
0.220000 0.180000 0
0.240000 0.180000 0
0.260000 0.180000 0
0.280000 0.180000 0
0.300000 0.180000 0
0.320000 0.180000 0
0.340000 0.180000 0
0.360000 0.180000 0
0.380000 0.180000 0
0.400000 0.180000 0
0.420000 0.180000 0
0.440000 0.180000 0
0.460000 0.180000 0
0.480000 0.180000 0
0.500000 0.180000 0
0.520000 0.180000 0
0.540000 0.180000 0
0.560000 0.180000 0
0.580000 0.180000 0
0.600000 0.180000 0
0.620000 0.180000 0
[...]
POINT_DATA 2601 

VECTORS velocity float
0.000000 0.000000 0
0.000000 0.000000 0
0.000000 0.000000 0
0.000000 0.000000 0
0.000000 0.000000 0
0.000000 0.000000 0
0.000000 0.000000 0
0.000000 0.000000 0
0.000000 0.000000 0
0.000000 0.000000 0
0.000000 0.000000 0
0.000000 0.000000 0
0.000000 0.000000 0
0.000000 0.000000 0
0.000000 0.000000 0
0.000000 0.000000 0
0.000000 0.000000 0
0.000000 0.000000 0
0.000000 0.000000 0
0.000000 0.000000 0
0.000000 0.000000 0
0.000000 0.000000 0
0.000000 0.000000 0
0.000000 0.000000 0
0.000000 0.000000 0
0.000000 0.000000 0
0.000000 0.000000 0
0.000000 0.000000 0
0.000000 0.000000 0
0.000000 0.000000 0
0.000000 0.000000 0
0.000000 0.000000 0
0.000000 0.000000 0
0.000000 0.000000 0
0.000000 0.000000 0
0.000000 0.000000 0
0.000000 0.000000 0
0.000000 0.000000 0
0.000000 0.000000 0
0.000000 0.000000 0
0.000000 0.000000 0
0.000000 0.000000 0
0.000000 0.000000 0
0.000000 0.000000 0
0.000000 0.000000 0
0.000000 0.000000 0
0.000000 0.000000 0
0.000000 0.000000 0
0.000000 0.000000 0
0.000000 0.000000 0
0.000000 0.000000 0
0.000000 0.000000 0
-0.084765 -0.023895 0
-0.137519 -0.042601 0
-0.163759 -0.055602 0
-0.178048 -0.065830 0
-0.188050 -0.075260 0
-0.196490 -0.084635 0
-0.204144 -0.094156 0
-0.211187 -0.103833 0
-0.217644 -0.113611 0
-0.223480 -0.123434 0
-0.228666 -0.133232 0
-0.233175 -0.142932 0
-0.236972 -0.152464 0
-0.240034 -0.161750 0
-0.242340 -0.170710 0
-0.243863 -0.179266 0
-0.244590 -0.187332 0
-0.244506 -0.194821 0
-0.243596 -0.201648 0
-0.241852 -0.207724 0
-0.239270 -0.212960 0
-0.235848 -0.217271 0
-0.231586 -0.220572 0
-0.226496 -0.222779 0
-0.220588 -0.223820 0
-0.213883 -0.223627 0
-0.206407 -0.222142 0
-0.198195 -0.219324 0
-0.189292 -0.215147 0
-0.179752 -0.209608 0
-0.169640 -0.202727 0
-0.159036 -0.194554 0
-0.148029 -0.185171 0
-0.136722 -0.174691 0
-0.125232 -0.163262 0
-0.113680 -0.151064 0
-0.102198 -0.138299 0
-0.090918 -0.125190 0
-0.079968 -0.111967 0
-0.069467 -0.098853 0
-0.059518 -0.086054 0
-0.050205 -0.073747 0
-0.041588 -0.062064 0
-0.033698 -0.051088 0
-0.026540 -0.040841 0
-0.020095 -0.031277 0
-0.014314 -0.022270 0
-0.009123 -0.013573 0
-0.004411 -0.004741 0
0.000000 0.000000 0
0.000000 0.000000 0
-0.168527 -0.048434 0
-0.258081 -0.081140 0
-0.295465 -0.101232 0
-0.313742 -0.116509 0
-0.326034 -0.130533 0
-0.336102 -0.144335 0
-0.344897 -0.158096 0
-0.352618 -0.171792 0
-0.359312 -0.185355 0
-0.364984 -0.198705 0
-0.369628 -0.211775 0
-0.373251 -0.224492 0
-0.375854 -0.236785 0
-0.377440 -0.248589 0
-0.378021 -0.259834 0
-0.377601 -0.270448 0
-0.376187 -0.280365 0
-0.373793 -0.289511 0
-0.370427 -0.297812 0
-0.366098 -0.305195 0
-0.360818 -0.311583 0
-0.354599 -0.316897 0
-0.347453 -0.321059 0
-0.339392 -0.323987 0
-0.330434 -0.325600 0
-0.320594 -0.325818 0
-0.309893 -0.324566 0
-0.298355 -0.321771 0
-0.286010 -0.317369 0
-0.272894 -0.311309 0
-0.259053 -0.303558 0
-0.244545 -0.294101 0
-0.229438 -0.282955 0
-0.213819 -0.270171 0
-0.197791 -0.255840 0
-0.181475 -0.240095 0
-0.165010 -0.223118 0
-0.148549 -0.205133 0
-0.132259 -0.186403 0
-0.116311 -0.167214 0
-0.100872 -0.147868 0
-0.086099 -0.128651 0
-0.072124 -0.109822 0
-0.059054 -0.091580 0
-0.046954 -0.074045 0
-0.035852 -0.057229 0
-0.025725 -0.041003 0
-0.016496 -0.025035 0
-0.008012 -0.008680 0
0.000000 0.000000 0
0.000000 0.000000 0
-0.237965 -0.067197 0
-0.344025 -0.106690 0
-0.379833 -0.128296 0
-0.395118 -0.144465 0
-0.404897 -0.159396 0
-0.412626 -0.174005 0
-0.419058 -0.188419 0
-0.424365 -0.202602 0
-0.428610 -0.216501 0
-0.431827 -0.230070 0
-0.434043 -0.243257 0
-0.435286 -0.256020 0
-0.435579 -0.268313 0
-0.434942 -0.280089 0
-0.433396 -0.291303 0
-0.430958 -0.301903 0
-0.427641 -0.311837 0
-0.423460 -0.321049 0
-0.418427 -0.329482 0
-0.412553 -0.337071 0
-0.405845 -0.343752 0
-0.398316 -0.349455 0
-0.389971 -0.354106 0
-0.380821 -0.357630 0
-0.370874 -0.359947 0
-0.360141 -0.360976 0
-0.348632 -0.360635 0
-0.336361 -0.358842 0
-0.323345 -0.355517 0
-0.309602 -0.350585 0
-0.295159 -0.343980 0
-0.280046 -0.335647 0
-0.264306 -0.325550 0
-0.247990 -0.313675 0
-0.231162 -0.300040 0
-0.213907 -0.284697 0
-0.196322 -0.267743 0
-0.178528 -0.249320 0
-0.160664 -0.229617 0
-0.142883 -0.208870 0
-0.125353 -0.187344 0
-0.108245 -0.165327 0
-0.091725 -0.143100 0
-0.075945 -0.120915 0
-0.061026 -0.098955 0
-0.047053 -0.077294 0
-0.034057 -0.055844 0
-0.022000 -0.034277 0
-0.010745 -0.011895 0
0.000000 0.000000 0
0.000000 0.000000 0
-0.285702 -0.077350 0
-0.395160 -0.118300 0
-0.425510 -0.139057 0
-0.436871 -0.154725 0
-0.443840 -0.169379 0
-0.449197 -0.183755 0
-0.453481 -0.197922 0
-0.456806 -0.211857 0
-0.459224 -0.225521 0
-0.460770 -0.238877 0
-0.461461 -0.251896 0
-0.461322 -0.264538 0
-0.460368 -0.276768 0
-0.458608 -0.288548 0
-0.456054 -0.299831 0
-0.452715 -0.310573 0
-0.448594 -0.320722 0
-0.443697 -0.330224 0
-0.438028 -0.339020 0
-0.431588 -0.347048 0
-0.424381 -0.354242 0
-0.416409 -0.360530 0
-0.407676 -0.365838 0
-0.398187 -0.370090 0
-0.387946 -0.373204 0
-0.376962 -0.375099 0
-0.365242 -0.375688 0
-0.352799 -0.374887 0
-0.339647 -0.372611 0
-0.325804 -0.368779 0
-0.311290 -0.363314 0
-0.296132 -0.356147 0
-0.280362 -0.347220 0
-0.264021 -0.336493 0
-0.247156 -0.323943 0
-0.229830 -0.309580 0
-0.212114 -0.293442 0
-0.194099 -0.275607 0
-0.175891 -0.256193 0
-0.157613 -0.235364 0
-0.139402 -0.213318 0
-0.121411 -0.190287 0
-0.103795 -0.166510 0
-0.086709 -0.142219 0
-0.070292 -0.117594 0
-0.054657 -0.092722 0
-0.039868 -0.067532 0
-0.025927 -0.041703 0
-0.012727 -0.014521 0
0.000000 0.000000 0
0.000000 0.000000 0
-0.315060 -0.080264 0
-0.423234 -0.120137 0
-0.449111 -0.139736 0
-0.457924 -0.154901 0
-0.463260 -0.169306 0
-0.467346 -0.183523 0
-0.470558 -0.197596 0
-0.472967 -0.211490 0
-0.474595 -0.225178 0
-0.475464 -0.238624 0
-0.475578 -0.251794 0
-0.474941 -0.264655 0
-0.473562 -0.277167 0
-0.471439 -0.289286 0
-0.468571 -0.300970 0
-0.464960 -0.312167 0
-0.460602 -0.322822 0
-0.455494 -0.332881 0
-0.449637 -0.342280 0
-0.443027 -0.350953 0
-0.435662 -0.358833 0
-0.427542 -0.365846 0
-0.418670 -0.371913 0
-0.409045 -0.376956 0
-0.398673 -0.380893 0
-0.387562 -0.383636 0
-0.375718 -0.385099 0
-0.363155 -0.385193 0
-0.349888 -0.383832 0
-0.335935 -0.380929 0
-0.321318 -0.376401 0
-0.306066 -0.370172 0
-0.290211 -0.362174 0
-0.273791 -0.352353 0
-0.256853 -0.340670 0
-0.239449 -0.327106 0
-0.221645 -0.311672 0
-0.203516 -0.294405 0
-0.185150 -0.275379 0
-0.166648 -0.254703 0
-0.148127 -0.232522 0
-0.129714 -0.209008 0
-0.111544 -0.184350 0
-0.093757 -0.158730 0
-0.076486 -0.132295 0
-0.059845 -0.105107 0
-0.043912 -0.077076 0
-0.028706 -0.047866 0
-0.014148 -0.016734 0
0.000000 0.000000 0
0.000000 0.000000 0
-0.333163 -0.078565 0
-0.439515 -0.116419 0
-0.462648 -0.135130 0
-0.470215 -0.150079 0
-0.474883 -0.164497 0
-0.478517 -0.178820 0
-0.481386 -0.193065 0
-0.483530 -0.207197 0
-0.484954 -0.221176 0
-0.485662 -0.234971 0
-0.485652 -0.248541 0
-0.484919 -0.261849 0
-0.483462 -0.274853 0
-0.481277 -0.287507 0
-0.478356 -0.299762 0
-0.474696 -0.311567 0
-0.470293 -0.322865 0
-0.465140 -0.333595 0
-0.459234 -0.343696 0
-0.452571 -0.353097 0
-0.445147 -0.361729 0
-0.436960 -0.369515 0
-0.428011 -0.376377 0
-0.418301 -0.382231 0
-0.407831 -0.386993 0
-0.396610 -0.390573 0
-0.384646 -0.392881 0
-0.371951 -0.393824 0
-0.358539 -0.393312 0
-0.344432 -0.391253 0
-0.329653 -0.387557 0
-0.314231 -0.382144 0
-0.298199 -0.374934 0
-0.281598 -0.365864 0
-0.264474 -0.354880 0
-0.246882 -0.341948 0
-0.228882 -0.327056 0
-0.210547 -0.310217 0
-0.191958 -0.291473 0
-0.173206 -0.270898 0
-0.154396 -0.248596 0
-0.135640 -0.224696 0
-0.117058 -0.199341 0
-0.098774 -0.172670 0
-0.080910 -0.144786 0
-0.063571 -0.115713 0
-0.046836 -0.085326 0
-0.030729 -0.053250 0
-0.015188 -0.018690 0
0.000000 0.000000 0
0.000000 0.000000 0
-0.345724 -0.074275 0
-0.450740 -0.109806 0
-0.472304 -0.127898 0
-0.479360 -0.142874 0
-0.483876 -0.157504 0
-0.487460 -0.172125 0
-0.490322 -0.186722 0
-0.492483 -0.201253 0
-0.493934 -0.215679 0
-0.494677 -0.229956 0
-0.494703 -0.244047 0
-0.494006 -0.257909 0
-0.492582 -0.271497 0
-0.490425 -0.284764 0
-0.487526 -0.297660 0
-0.483882 -0.310129 0
-0.479487 -0.322115 0
-0.474334 -0.333557 0
-0.468418 -0.344389 0
-0.461735 -0.354543 0
-0.454281 -0.363945 0
-0.446052 -0.372519 0
-0.437046 -0.380183 0
-0.427265 -0.386853 0
-0.416710 -0.392440 0
-0.405387 -0.396851 0
-0.393302 -0.399994 0
-0.380469 -0.401772 0
-0.366900 -0.402087 0
-0.352618 -0.400844 0
-0.337645 -0.397946 0
-0.322011 -0.393303 0
-0.305752 -0.386828 0
-0.288908 -0.378446 0
-0.271528 -0.368091 0
-0.253666 -0.355713 0
-0.235385 -0.341281 0
-0.216756 -0.324788 0
-0.197859 -0.306251 0
-0.178784 -0.285717 0
-0.159628 -0.263258 0
-0.140498 -0.238968 0
-0.121506 -0.212956 0
-0.102767 -0.185323 0
-0.084392 -0.156132 0
-0.066480 -0.125370 0
-0.049106 -0.092868 0
-0.032295 -0.058202 0
-0.015991 -0.020505 0
0.000000 0.000000 0
0.000000 0.000000 0
-0.356023 -0.068558 0
-0.460132 -0.101654 0
-0.480719 -0.119309 0
-0.487608 -0.134455 0
-0.492182 -0.149427 0
-0.495878 -0.164452 0
-0.498851 -0.179499 0
-0.501119 -0.194515 0
-0.502671 -0.209454 0
-0.503502 -0.224275 0
-0.503608 -0.238935 0
-0.502980 -0.253389 0
-0.501614 -0.267594 0
-0.499506 -0.281499 0
-0.496648 -0.295053 0
-0.493035 -0.308203 0
-0.488662 -0.320889 0
-0.483522 -0.333050 0
-0.477610 -0.344621 0
-0.470921 -0.355531 0
-0.463449 -0.365707 0
-0.455190 -0.375070 0
-0.446142 -0.383538 0
-0.436303 -0.391024 0
-0.425673 -0.397437 0
-0.414256 -0.402681 0
-0.402059 -0.406658 0
-0.389090 -0.409268 0
-0.375365 -0.410409 0
-0.360902 -0.409977 0
-0.345725 -0.407871 0
-0.329864 -0.403990 0
-0.313353 -0.398240 0
-0.296236 -0.390531 0
-0.278560 -0.380787 0
-0.260382 -0.368941 0
-0.241767 -0.354946 0
-0.222785 -0.338773 0
-0.203519 -0.320418 0
-0.184058 -0.299902 0
-0.164498 -0.277269 0
-0.144944 -0.252586 0
-0.125506 -0.225929 0
-0.106295 -0.197367 0
-0.087419 -0.166931 0
-0.068971 -0.134567 0
-0.051025 -0.100067 0
-0.033604 -0.062947 0
-0.016658 -0.022255 0
0.000000 0.000000 0
0.000000 0.000000 0
-0.365608 -0.062009 0
-0.469023 -0.092615 0
-0.488882 -0.109935 0
-0.495738 -0.125333 0
-0.500446 -0.140708 0
-0.504294 -0.156196 0
-0.507410 -0.171738 0
-0.509804 -0.187277 0
-0.511469 -0.202762 0
-0.512397 -0.218149 0
-0.512587 -0.233396 0
-0.512033 -0.248455 0
-0.510728 -0.263282 0
-0.508672 -0.277829 0
-0.505858 -0.292042 0
-0.502280 -0.305869 0
-0.497935 -0.319253 0
-0.492816 -0.332130 0
-0.486916 -0.344435 0
-0.480230 -0.356099 0
-0.472753 -0.367047 0
-0.464477 -0.377198 0
-0.455398 -0.386470 0
-0.445514 -0.394773 0
-0.434823 -0.402013 0
-0.423325 -0.408093 0
-0.411026 -0.412910 0
-0.397934 -0.416359 0
-0.384060 -0.418331 0
-0.369421 -0.418719 0
-0.354041 -0.417411 0
-0.337948 -0.414300 0
-0.321178 -0.409280 0
-0.303772 -0.402253 0
-0.285781 -0.393126 0
-0.267261 -0.381818 0
-0.248279 -0.368265 0
-0.228907 -0.352419 0
-0.209228 -0.334251 0
-0.189334 -0.313760 0
-0.169323 -0.290962 0
-0.149300 -0.265898 0
-0.129376 -0.238613 0
-0.109662 -0.209146 0
-0.090265 -0.177497 0
-0.071280 -0.143577 0
-0.052778 -0.107132 0
-0.034786 -0.067618 0
-0.017254 -0.023986 0
0.000000 0.000000 0
0.000000 0.000000 0
-0.375121 -0.054886 0
-0.477877 -0.082979 0
-0.497105 -0.100028 0
-0.503972 -0.115725 0
-0.508833 -0.131537 0
-0.512839 -0.147511 0
-0.516097 -0.163569 0
-0.518616 -0.179643 0
-0.520387 -0.195684 0
-0.521409 -0.211643 0
-0.521679 -0.227477 0
-0.521194 -0.243141 0
-0.519950 -0.258588 0
-0.517946 -0.273771 0
-0.515177 -0.288639 0
-0.511639 -0.303137 0
-0.507326 -0.317210 0
-0.502234 -0.330796 0
-0.496355 -0.343828 0
-0.489681 -0.356239 0
-0.482208 -0.367953 0
-0.473927 -0.378890 0
-0.464832 -0.388964 0
-0.454917 -0.398086 0
-0.444180 -0.406157 0
-0.432617 -0.413078 0
-0.420232 -0.418742 0
-0.407028 -0.423039 0
-0.393018 -0.425855 0
-0.378214 -0.427074 0
-0.362638 -0.426580 0
-0.346318 -0.424254 0
-0.329288 -0.419982 0
-0.311590 -0.413653 0
-0.293274 -0.405161 0
-0.274397 -0.394412 0
-0.255027 -0.381321 0
-0.235240 -0.365821 0
-0.215119 -0.347864 0
-0.194758 -0.327420 0
-0.174258 -0.304482 0
-0.153728 -0.279061 0
-0.133280 -0.251174 0
-0.113029 -0.220829 0
-0.093084 -0.187994 0
-0.073543 -0.152544 0
-0.054479 -0.114180 0
-0.035921 -0.072292 0
-0.017822 -0.025725 0
0.000000 0.000000 0
0.000000 0.000000 0
-0.384776 -0.047298 0
-0.486829 -0.072859 0
-0.505452 -0.089688 0
-0.512348 -0.105709 0
-0.517358 -0.121978 0
-0.521519 -0.138452 0
-0.524913 -0.155033 0
-0.527548 -0.171648 0
-0.529423 -0.188242 0
-0.530532 -0.204771 0
-0.530878 -0.221187 0
-0.530459 -0.237448 0
-0.529274 -0.253508 0
-0.527321 -0.269319 0
-0.524598 -0.284831 0
-0.521100 -0.299991 0
-0.516824 -0.314744 0
-0.511764 -0.329028 0
-0.505912 -0.342781 0
-0.499262 -0.355931 0
-0.491804 -0.368405 0
-0.483530 -0.380123 0
-0.474433 -0.390997 0
-0.464503 -0.400936 0
-0.453735 -0.409842 0
-0.442124 -0.417610 0
-0.429669 -0.424130 0
-0.416372 -0.429287 0
-0.402240 -0.432961 0
-0.387286 -0.435030 0
-0.371526 -0.435368 0
-0.354988 -0.433849 0
-0.337704 -0.430347 0
-0.319715 -0.424740 0
-0.301070 -0.416910 0
-0.281829 -0.406745 0
-0.262060 -0.394144 0
-0.241839 -0.379022 0
-0.221254 -0.361305 0
-0.200400 -0.340941 0
-0.179382 -0.317896 0
-0.158312 -0.292151 0
-0.137307 -0.263693 0
-0.116485 -0.232500 0
-0.095960 -0.198505 0
-0.075837 -0.161545 0
-0.056191 -0.121273 0
-0.037056 -0.077010 0
-0.018387 -0.027488 0
0.000000 0.000000 0
0.000000 0.000000 0
-0.394619 -0.039291 0
-0.495890 -0.062310 0
-0.513916 -0.078954 0
-0.520849 -0.095315 0
-0.526009 -0.112047 0
-0.530315 -0.129027 0
-0.533839 -0.146133 0
-0.536585 -0.163289 0
-0.538556 -0.180436 0
-0.539749 -0.197528 0
-0.540167 -0.214521 0
-0.539812 -0.231371 0
-0.538683 -0.248031 0
-0.536779 -0.264459 0
-0.534102 -0.280603 0
-0.530648 -0.296412 0
-0.526410 -0.311832 0
-0.521386 -0.326805 0
-0.515569 -0.341266 0
-0.508948 -0.355147 0
-0.501516 -0.368374 0
-0.493262 -0.380867 0
-0.484176 -0.392539 0
-0.474246 -0.403297 0
-0.463465 -0.413040 0
-0.451824 -0.421661 0
-0.439319 -0.429047 0
-0.425947 -0.435077 0
-0.411713 -0.439626 0
-0.396625 -0.442563 0
-0.380698 -0.443756 0
-0.363955 -0.443069 0
-0.346426 -0.440365 0
-0.328153 -0.435510 0
-0.309182 -0.428371 0
-0.289574 -0.418823 0
-0.269398 -0.406747 0
-0.248732 -0.392036 0
-0.227665 -0.374597 0
-0.206297 -0.354351 0
-0.184735 -0.331237 0
-0.163097 -0.305206 0
-0.141503 -0.276214 0
-0.120079 -0.244204 0
-0.098944 -0.209075 0
-0.078207 -0.170622 0
-0.057952 -0.128448 0
-0.038219 -0.081799 0
-0.018965 -0.029283 0
0.000000 0.000000 0
0.000000 0.000000 0
-0.404648 -0.030865 0
-0.505034 -0.051345 0
-0.522477 -0.067837 0
-0.529453 -0.084553 0
-0.534761 -0.101752 0
-0.539210 -0.119237 0
-0.542859 -0.136868 0
-0.545712 -0.154560 0
-0.547773 -0.172254 0
-0.549046 -0.189904 0
-0.549531 -0.207464 0
-0.549235 -0.224892 0
-0.548160 -0.242144 0
-0.546304 -0.259175 0
-0.543671 -0.275938 0
-0.540259 -0.292383 0
-0.536062 -0.308457 0
-0.531077 -0.324104 0
-0.525298 -0.339260 0
-0.518715 -0.353861 0
-0.511317 -0.367832 0
-0.503093 -0.381093 0
-0.494032 -0.393559 0
-0.484118 -0.405134 0
-0.473341 -0.415717 0
-0.461690 -0.425198 0
-0.449154 -0.433459 0
-0.435729 -0.440377 0
-0.421414 -0.445818 0
-0.406213 -0.449646 0
-0.390138 -0.451720 0
-0.373207 -0.451893 0
-0.355449 -0.450018 0
-0.336901 -0.445947 0
-0.317611 -0.439536 0
-0.297638 -0.430642 0
-0.277051 -0.419129 0
-0.255931 -0.404870 0
-0.234370 -0.387749 0
-0.212469 -0.367663 0
-0.190342 -0.344522 0
-0.168109 -0.318246 0
-0.145898 -0.288758 0
-0.123840 -0.255966 0
-0.102062 -0.219730 0
-0.080680 -0.179802 0
-0.059787 -0.135727 0
-0.039428 -0.086674 0
-0.019563 -0.031119 0
0.000000 0.000000 0
0.000000 0.000000 0
-0.414839 -0.022011 0
-0.514243 -0.039955 0
-0.531112 -0.056331 0
-0.538146 -0.073410 0
-0.543601 -0.091084 0
-0.548190 -0.109076 0
-0.551960 -0.127229 0
-0.554915 -0.145453 0
-0.557064 -0.163688 0
-0.558409 -0.181886 0
-0.558958 -0.200004 0
-0.558716 -0.218000 0
-0.557687 -0.235830 0
-0.555876 -0.253451 0
-0.553284 -0.270819 0
-0.549911 -0.287885 0
-0.545755 -0.304598 0
-0.540811 -0.320903 0
-0.535073 -0.336742 0
-0.528532 -0.352048 0
-0.521176 -0.366750 0
-0.512993 -0.380771 0
-0.503969 -0.394023 0
-0.494087 -0.406412 0
-0.483332 -0.417836 0
-0.471689 -0.428182 0
-0.459145 -0.437329 0
-0.445690 -0.445148 0
-0.431318 -0.451502 0
-0.416028 -0.456245 0
-0.399827 -0.459226 0
-0.382730 -0.460291 0
-0.364760 -0.459280 0
-0.345953 -0.456033 0
-0.326354 -0.450389 0
-0.306021 -0.442190 0
-0.285024 -0.431283 0
-0.263446 -0.417520 0
-0.241379 -0.400763 0
-0.218931 -0.380882 0
-0.196218 -0.357758 0
-0.173367 -0.331282 0
-0.150510 -0.301340 0
-0.127788 -0.267802 0
-0.105334 -0.230488 0
-0.083275 -0.189100 0
-0.061710 -0.143126 0
-0.040693 -0.091646 0
-0.020189 -0.032998 0
0.000000 0.000000 0
0.000000 0.000000 0
-0.425176 -0.012717 0
-0.523499 -0.028133 0
-0.539812 -0.044425 0
-0.546914 -0.061879 0
-0.552520 -0.080028 0
-0.557246 -0.098529 0
-0.561134 -0.117203 0
-0.564187 -0.135957 0
-0.566416 -0.154728 0
-0.567829 -0.173467 0
-0.568433 -0.192133 0
-0.568239 -0.210683 0
-0.567252 -0.229077 0
-0.565477 -0.247274 0
-0.562920 -0.265230 0
-0.559583 -0.282900 0
-0.555463 -0.300235 0
-0.550559 -0.317182 0
-0.544864 -0.333686 0
-0.538368 -0.349682 0
-0.531061 -0.365102 0
-0.522928 -0.379870 0
-0.513953 -0.393900 0
-0.504117 -0.407098 0
-0.493402 -0.419360 0
-0.481789 -0.430574 0
-0.469259 -0.440616 0
-0.455799 -0.449350 0
-0.441395 -0.456635 0
-0.426043 -0.462317 0
-0.409743 -0.466237 0
-0.392504 -0.468229 0
-0.374345 -0.468121 0
-0.355298 -0.465739 0
-0.335405 -0.460907 0
-0.314723 -0.453451 0
-0.293321 -0.443197 0
-0.271282 -0.429979 0
-0.248703 -0.413634 0
-0.225694 -0.394007 0
-0.202377 -0.370951 0
-0.178883 -0.344320 0
-0.155354 -0.313968 0
-0.131936 -0.279723 0
-0.108774 -0.241360 0
-0.086002 -0.198531 0
-0.063731 -0.150657 0
-0.042022 -0.096726 0
-0.020846 -0.034927 0
0.000000 0.000000 0
0.000000 0.000000 0
-0.435664 -0.002949 0
-0.532791 -0.015859 0
-0.548570 -0.032104 0
-0.555754 -0.049946 0
-0.561514 -0.068577 0
-0.566376 -0.087587 0
-0.570376 -0.106781 0
-0.573521 -0.126060 0
-0.575823 -0.145361 0
-0.577296 -0.164634 0
-0.577948 -0.183838 0
-0.577790 -0.202932 0
-0.576836 -0.221877 0
-0.575090 -0.240633 0
-0.572561 -0.259161 0
-0.569252 -0.277415 0
-0.565164 -0.295352 0
-0.560296 -0.312922 0
-0.554642 -0.330071 0
-0.548194 -0.346739 0
-0.540939 -0.362860 0
-0.532863 -0.378359 0
-0.523948 -0.393155 0
-0.514172 -0.407153 0
-0.503514 -0.420251 0
-0.491951 -0.432333 0
-0.479460 -0.443275 0
-0.466021 -0.452937 0
-0.451615 -0.461172 0
-0.436229 -0.467819 0
-0.419860 -0.472709 0
-0.402508 -0.475664 0
-0.384188 -0.476501 0
-0.364924 -0.475030 0
-0.344758 -0.471060 0
-0.323741 -0.464398 0
-0.301942 -0.454852 0
-0.279445 -0.442233 0
-0.256350 -0.426355 0
-0.232770 -0.407036 0
-0.208831 -0.384099 0
-0.184673 -0.357365 0
-0.160444 -0.326649 0
-0.136299 -0.291738 0
-0.112394 -0.252357 0
-0.088873 -0.208104 0
-0.065858 -0.158330 0
-0.043421 -0.101922 0
-0.021538 -0.036907 0
0.000000 0.000000 0
0.000000 0.000000 0
-0.446308 0.007321 0
-0.542135 -0.003096 0
-0.557385 -0.019346 0
-0.564664 -0.037594 0
-0.570578 -0.056716 0
-0.575575 -0.076240 0
-0.579683 -0.095955 0
-0.582913 -0.115757 0
-0.585281 -0.135581 0
-0.586801 -0.155380 0
-0.587490 -0.175112 0
-0.587359 -0.194737 0
-0.586424 -0.214219 0
-0.584697 -0.233519 0
-0.582185 -0.252598 0
-0.578895 -0.271418 0
-0.574832 -0.289936 0
-0.569994 -0.308106 0
-0.564377 -0.325877 0
-0.557976 -0.343195 0
-0.550776 -0.359996 0
-0.542762 -0.376209 0
-0.533916 -0.391754 0
-0.524213 -0.406541 0
-0.513630 -0.420465 0
-0.502138 -0.433415 0
-0.489710 -0.445260 0
-0.476319 -0.455861 0
-0.461941 -0.465062 0
-0.446555 -0.472699 0
-0.430149 -0.478590 0
-0.412718 -0.482549 0
-0.394268 -0.484375 0
-0.374819 -0.483867 0
-0.354403 -0.480813 0
-0.333071 -0.475003 0
-0.310889 -0.466224 0
-0.287941 -0.454263 0
-0.264329 -0.438912 0
-0.240168 -0.419960 0
-0.215593 -0.397198 0
-0.190748 -0.370416 0
-0.165792 -0.339386 0
-0.140889 -0.303852 0
-0.116205 -0.263487 0
-0.091898 -0.217830 0